----- GAMESS execution script 'rungms' -----
This job is running on host Mac
under operating system Darwin at Mon Jul 14 13:45:30 EDT 2025
Available scratch disk space (Kbyte units) at beginning of the job is
Filesystem   1024-blocks      Used Available Capacity iused      ifree %iused  Mounted on
/dev/disk3s5   239362496 102281592 114869044    48%  918491 1148690440    0%   /System/Volumes/Data
GAMESS temporary binary files will be written to /Users/zhuan08/Programming_Projects/oled_project/gamess/restart
GAMESS supplementary output files will be written to /Users/zhuan08/Programming_Projects/oled_project/gamess/restart
Copying input file ./molecule.inp to your run's scratch directory...

 Distributed Data Interface kickoff program.
 Initiating 1 compute processes on 1 nodes to run the following command:
 /Users/zhuan08/Programming_Projects/oled_project/gamess/gamess.30Jun2020R1.x molecule 

          *******************************************************
          *                                                     *
          *          GAMESS VERSION = 30 JUN 2020 (R1)          *
          *                                                     *
          *              doi.org/10.1063/5.0005188              *
          *                                                     *
          **************** 64 BIT APPLE VERSION *****************

  GAMESS HAS BEEN MADE POSSIBLE WITH IMPORTANT CONTRIBUTIONS FROM
  THE FOLLOWING INDIVIDUALS (IN ALPHABETICAL ORDER):

     IVANA ADAMOVIC, CHRISTINE AIKENS, TOMOKO AKAMA,
     YURI ALEXEEV, YURIKO AOKI, POOJA ARORA, TOSHIO ASADA,
     ANDREY ASADCHEV, KIM K. BALDRIDGE, PRADIPTA BANDYOPADHYAY,
     MARIA BARYSZ, ROB BELL, JONATHAN BENTZ, COLLEEN BERTONI,
     JERRY A. BOATZ, BRETT BODE, KURT BRORSEN, KURT R. BRORSEN,
     LAIMUTIS BYTAUTAS, CALEB CARLIN, LAURA CARRINGTON,
     GALINA CHABAN, BENOIT CHAMPAGNE, WEI CHEN, MAHITO CHIBA,
     DAN CHIPMAN, CHEOL HO CHOI, TANNER CULPITT, PAUL DAY,
     ALBERT DEFUSCO, NUWAN DESILVA, J. EMILIANO DEUSTUA,
     TIM DUDLEY, MICHEL DUPUIS, STEVEN T. ELBERT,
     DMITRI FEDOROV, ALEX FINDLATER, GRAHAM FLETCHER,
     MARK FREITAG, CHRISTIAN FRIEDL, DAVID GARMER,
     IGOR S. GERASIMOV, KURT GLAESEMANN, MARK S. GORDON,
     JEFFREY GOUR, FENG LONG GU, EMILIE B. GUIDEZ,
     ANASTASIA GUNINA, SHARON HAMMES-SCHIFFER, MASATAKE HARUTA,
     KIMIHIKO HIRAO, YASUHIRO IKABATA, TZVETELIN IORDANOV,
     STEPHAN IRLE, KAZUYA ISHIMURA, JOE IVANIC, FRANK JENSEN,
     JAN H. JENSEN, VISVALDAS KAIRYS, MUNEAKI KAMIYA,
     MICHIO KATOUDA, NAOAKI KAWAKAMI, DAN KEMP, BERNARD KIRTMAN,
     KAZUO KITAURA, MARIUSZ KLOBUKOWSKI, MASATO KOBAYASHI,
     PRAKASHAN KORAMBATH, JACEK KORCHOWIEC, SHIRO KOSEKI,
     KAROL KOWALSKI, JIMMY KROMANN, STANISLAW KUCHARSKI,
     HENRY KURTZ, SAROM SOK LEANG, HUI LI, SHUHUA LI, WEI LI,
     JESSE LUTZ, ALEKSANDR O. LYKHIN, MARCIN MAKOWSKI,
     JOANI MATO, NIKITA MATSUNAGA, BENEDETTA MENNUCCI,
     GRANT MERRILL, NORIYUKI MINEZAWA, VLADIMIR MIRONOV,
     EISAKU MIYOSHI, JOHN A. MONTGOMERY JR., HIROTOSHI MORI,
     JONATHAN MULLIN, MONIKA MUSIAL, SHIGERU NAGASE,
     TAKESHI NAGATA, HIROMI NAKAI, TAKAHITO NAKAJIMA,
     YUYA NAKAJIMA, HARUYUKI NAKANO, HIROYA NAKATA, SEAN NEDD,
     HEATHER NETZLOFF, KIET A. NGUYEN, YOSHIO NISHIMOTO,
     BOSILJKA NJEGIC, RYAN OLSON, MIKE PAK, ROBERTO PEVERATI,
     BUU PHAM, PIOTR PIECUCH, ANNA POMOGAEVA, DAVID POOLE,
     SPENCER PRUITT, OLIVIER QUINET, LUKE ROSKOP,
     KLAUS RUEDENBERG, ANDREW SAND, TOSAPORN SATTASATHUCHANA,
     NOZOMI SAWADA, MICHAEL W. SCHMIDT, PATRICK E. SCHNEIDER,
     JUNJI SEINO, PRACHI SHARMA, JUN SHEN, JIM SHOEMAKER,
     YINAN SHU, DEJUN SI, JONATHAN SKONE, LYUDMILA SLIPCHENKO,
     TONY SMITH, JIE SONG, MARK SPACKMAN, CASPER STEINMANN,
     WALT STEVENS, PEIFENG SU, SHUJUN SU, CHET SWALINA,
     TETSUYA TAKETSUGU, ZHEN TAO, NANDUN THELLAMUREGE
     SEIKEN TOKURA, JACOPO TOMASI, TSUGUKI TOUMA, TAKAO TSUNEDA,
     HIROAKI UMEDA, JORGE LUIS GALVEZ VALLEJO, YALI WANG,
     SIMON WEBB, AARON WEST, THERESA L. WINDUS, MARTA WLOCH,
     PENG XU, KIYOSHI YAGI, SUSUMU YANAGISAWA, YANG YANG,
     SOOHAENG YOO, TAKESHI YOSHIKAWA, FEDERICO ZAHARIEV,
     TOBY ZENG

  WHO ARE SUPPORTED BY THEIR INSTITUTION/UNIVERSITY/COMPANY/GROUP
  (IN ALPHABETICAL ORDER):

     EP ANALYTICS, FACULTES UNIVERSITAIRES NOTRE-DAME DE LA PAIX,
     INSTITUTE FOR MOLECULAR SCIENCE, IOWA STATE UNIVERSITY,
     JACKSON STATE UNIVERSITY, JOHANNES KEPLER UNIVERSITY LINZ,
     KYUSHU UNIVERSITY, MICHIGAN STATE UNIVERSITY,
     MIE UNIVERSITY, MOSCOW STATE UNIVERSITY,
     N. COPERNICUS UNIVERSITY, NAGOYA UNIVERSITY,
     NANJING UNIVERSITY, NAT. INST. OF ADVANCED INDUSTRIAL
     SCIENCE AND TECHNOLOGY, NATIONAL INST. OF STANDARDS AND
     TECHNOLOGY, NESMEYANOV INSTITUTE OF ORGANOELEMENT COMPOUNDS
     OF RUSSIAN ACADEMY OF SCIENCES, OSAKA PREFECTURE UNIVERSITY,
     PENNSYLVANIA STATE UNIVERSITY, TOKYO INSTITUTE OF TECHNOLOGY,
     UNIVERSITY OF AARHUS, UNIVERSITY OF ALBERTA,
     UNIVERSITY OF CALIFORNIA AT SANTA BARBARA,
     UNIVERSITY OF COPENHAGEN, UNIVERSITY OF IOWA,
     UNIVERSITY OF MEMPHIS, UNIVERSITY OF MINNESOTA,
     UNIVERSITY OF NEBRASKA, UNIVERSITY OF NEW ENGLAND,
     UNIVERSITY OF NOTRE DAME, UNIVERSITY OF PISA,
     UNIVERSITY OF SILESIA, UNIVERSITY OF TOKYO,
     UNIVERSITY OF ZURICH, WASEDA UNIVERSITY, YALE UNIVERSITY

  GAMESS SOFTWARE MANAGEMENT TEAM FOR THIS RELEASE:

     MARK S. GORDON (TEAM LEAD),
     BRETT BODE (SENIOR ADVISOR),
     GIUSEPPE BARCA,
     COLLEEN BERTONI,
     KRISTOPHER KEIPERT (ADVISOR),
     SAROM S. LEANG (DEVELOPMENT LEAD),
     BUU PHAM,
     JORGE LUIS GALVEZ VALLEJO (WEBSITE ADMINISTRATOR),
     PENG XU

 EXECUTION OF GAMESS BEGUN Mon Jul 14 13:45:30 2025

            ECHO OF THE FIRST FEW INPUT CARDS -
 INPUT CARD> $CONTRL                                                                        
 INPUT CARD>  MULT=3                                                                        
 INPUT CARD>  RUNTYP=ENERGY                                                                 
 INPUT CARD>  SCFTYP=UHF                                                                    
 INPUT CARD> $END                                                                           
 INPUT CARD>                                                                                
 INPUT CARD> $BASIS                                                                         
 INPUT CARD>  GBASIS=N21                                                                    
 INPUT CARD>  NGAUSS=3                                                                      
 INPUT CARD> $END                                                                           
 INPUT CARD>                                                                                
 INPUT CARD> $DATA                                                                          
 INPUT CARD>C13H10O                                                                         
 INPUT CARD>C1                                                                              
 INPUT CARD>O     8  1.4729057000000e-01 -1.2824870200000e+00 -2.3087729700000e+00          
 INPUT CARD>C     6  9.9418540000000e-02 -6.4407455000000e-01 -1.2297969500000e+00          
 INPUT CARD>C     6  1.2742326300000e+00 -1.7346167000000e-01 -5.3591010000000e-01          
 INPUT CARD>C     6  1.2977419500000e+00  1.9445549000000e-01  8.1749124000000e-01          
 INPUT CARD>C     6  2.4752229200000e+00  6.0700259000000e-01  1.4016441800000e+00          
 INPUT CARD>C     6  3.6572334800000e+00  6.3197916000000e-01  6.7037891000000e-01          
 INPUT CARD>C     6  3.6508426200000e+00  2.1286881000000e-01 -6.5284479000000e-01          
 INPUT CARD>C     6  2.4886213100000e+00 -1.9574288000000e-01 -1.2598489800000e+00          
 INPUT CARD>C     6 -1.2192172300000e+00 -3.6050337000000e-01 -6.3321392000000e-01          
 INPUT CARD>C     6 -1.4917461000000e+00  8.3424163000000e-01  4.0404250000000e-02          
 INPUT CARD>C     6 -2.7412623200000e+00  1.0378311500000e+00  5.9345612000000e-01          
 INPUT CARD>C     6 -3.7329142100000e+00  7.5501320000000e-02  4.6332184000000e-01          
 INPUT CARD>C     6 -3.4772961000000e+00 -1.0819504300000e+00 -2.5772026000000e-01          
 INPUT CARD>C     6 -2.2402897900000e+00 -1.3010692600000e+00 -8.2564083000000e-01          
 INPUT CARD>H     1  4.0721624000000e-01  1.1539545000000e-01  1.4243822000000e+00          
 INPUT CARD>H     1  2.4792818000000e+00  8.9279221000000e-01  2.4427989300000e+00          
 INPUT CARD>H     1  4.5729465200000e+00  9.6738589000000e-01  1.1312360100000e+00          
 INPUT CARD>H     1  4.5690431700000e+00  2.0958184000000e-01 -1.2244275500000e+00          
 INPUT CARD>H     1  2.4669911500000e+00 -5.1972077000000e-01 -2.2884728600000e+00          
 INPUT CARD>H     1 -7.4591703000000e-01  1.6130107900000e+00  9.9696670000000e-02          
 INPUT CARD>H     1 -2.9468419100000e+00  1.9621864300000e+00  1.1148125500000e+00          
 INPUT CARD>H     1 -4.7064913500000e+00  2.3858673000000e-01  9.0091320000000e-01          
 INPUT CARD>H     1 -4.2469823600000e+00 -1.8312909800000e+00 -3.7596736000000e-01          
 INPUT CARD>H     1 -2.0371244900000e+00 -2.2025185600000e+00 -1.3822262600000e+00          
 INPUT CARD> $END                                                                           
    1000000 WORDS OF MEMORY AVAILABLE

     BASIS OPTIONS
     -------------
     GBASIS=N21          IGAUSS=       3      POLAR=NONE    
     NDFUNC=       0     NFFUNC=       0     DIFFSP=       F
     NPFUNC=       0      DIFFS=       F     BASNAM=        


     RUN TITLE
     ---------
 C13H10O                                                                         

 THE POINT GROUP OF THE MOLECULE IS C1      
 THE ORDER OF THE PRINCIPAL AXIS IS     0

 ATOM      ATOMIC                      COORDINATES (BOHR)
           CHARGE         X                   Y                   Z
 O           8.0     0.2783388179       -2.4235490506       -4.3629482812
 C           6.0     0.1878737987       -1.2171244152       -2.3239792560
 C           6.0     2.4079505153       -0.3277950257       -1.0127232431
 C           6.0     2.4523766883        0.3674675929        1.5448344410
 C           6.0     4.6774930773        1.1470685689        2.6487234325
 C           6.0     6.9111691503        1.1942674424        1.2668324478
 C           6.0     6.8990921761        0.4022637222       -1.2336977656
 C           6.0     4.7028123631       -0.3699004072       -2.3807693581
 C           6.0    -2.3039864842       -0.6812525870       -1.1966008004
 C           6.0    -2.8189913723        1.5764880883        0.0763529612
 C           6.0    -5.1802346453        1.9612164950        1.1214694525
 C           6.0    -7.0541849926        0.1426768065        0.8755513217
 C           6.0    -6.5711368072       -2.0445898450       -0.4870206729
 C           6.0    -4.2335338362       -2.4586643924       -1.5602349330
 H           1.0     0.7695271114        0.2180657807        2.6916920598
 H           1.0     4.6851632483        1.6871326409        4.6162206208
 H           1.0     8.6416158793        1.8280942565        2.1377260863
 H           1.0     8.6342396174        0.3960522496       -2.3138325613
 H           1.0     4.6619372876       -0.9821298454       -4.3245866357
 H           1.0    -1.4095787963        3.0481484083        0.1883993882
 H           1.0    -5.5687237390        3.7079946895        2.1066902472
 H           1.0    -8.8939790151        0.4508635440        1.7024790867
 H           1.0    -8.0256329351       -3.4606381560       -0.7104752907
 H           1.0    -3.8496070890       -4.1621565613       -2.6120288844

          INTERNUCLEAR DISTANCES (ANGS.)
          ------------------------------

                1 O          2 C          3 C          4 C          5 C     

   1 O       0.0000000    1.2546121 *  2.3754954 *  3.6439574    4.7703915  
   2 C       1.2546121 *  0.0000000    1.4433099 *  2.5160486 *  3.7595376  
   3 C       2.3754954 *  1.4433099 *  0.0000000    1.4027155 *  2.4094852 *
   4 C       3.6439574    2.5160486 *  1.4027155 *  0.0000000    1.3776397 *
   5 C       4.7703915    3.7595376    2.4094852 *  1.3776397 *  0.0000000  
   6 C       4.9860030    4.2304880    2.7897242 *  2.4042191 *  1.3901517 *
   7 C       4.1536808    3.6986266    2.4106431 *  2.7747630 *  2.3996558 *
   8 C       2.7862311 *  2.4310891 *  1.4139745 *  2.4260649 *  2.7799507 *
   9 C       2.3505096 *  1.4748302 *  2.5023479 *  2.9576356 *  4.3273090  
  10 C       3.5616871    2.5160753 *  2.9997071 *  2.9655411 *  4.2001732  
  11 C       4.7064369    3.7712765    4.3436043    4.1321943    5.2962722  
  12 C       4.9582891    4.2510252    5.1119435    5.0445106    6.3011038  
  13 C       4.1694917    3.7322320    4.8455925    5.0582883    6.4061326  
  14 C       2.8107946 *  2.4635786 *  3.7023385    4.1778159    5.5531610  
  15 H       3.9947571    2.7778051 *  2.1628458 *  1.0805569 *  2.1257578 *
  16 H       5.7225395    4.6382830    3.3855204    2.1272836 *  1.0796737 *
  17 H       6.0400348    5.3088355    3.8681291    3.3797666    2.1455631 *
  18 H       4.7910302    4.5504178    3.3877065    3.8563030    3.3820525  
  19 H       2.4419736 *  2.5964704 *  2.1480327 *  3.3947319    3.8583075  
  20 H       3.8707174    2.7525588 *  2.7706469 *  2.5892219 *  3.6170240  
  21 H       5.6411434    4.6442968    5.0103242    4.6075769    5.5962115  
  22 H       6.0145615    5.3306460    6.1646820    6.0049750    7.2085700  
  23 H       4.8318276    4.5858160    5.7669571    6.0226207    7.3683935  
  24 H       2.5449196 *  2.6489240 *  3.9747212    4.6589243    6.0003852  

                6 C          7 C          8 C          9 C         10 C     

   1 O       4.9860030    4.1536808    2.7862311 *  2.3505096 *  3.5616871  
   2 C       4.2304880    3.6986266    2.4310891 *  1.4748302 *  2.5160753 *
   3 C       2.7897242 *  2.4106431 *  1.4139745 *  2.5023479 *  2.9997071 *
   4 C       2.4042191 *  2.7747630 *  2.4260649 *  2.9576356 *  2.9655411 *
   5 C       1.3901517 *  2.3996558 *  2.7799507 *  4.3273090    4.2001732  
   6 C       0.0000000    1.3880257 *  2.4034471 *  5.1443316    5.1913167  
   7 C       1.3880257 *  0.0000000    1.3733812 *  4.9037357    5.2261762  
   8 C       2.4034471 *  1.3733812 *  0.0000000    3.7640250    4.3121748  
   9 C       5.1443316    4.9037357    3.7640250    0.0000000    1.3983737 *
  10 C       5.1913167    5.2261762    4.3121748    1.3983737 *  0.0000000  
  11 C       6.4118158    6.5645133    5.6840239    2.4034725 *  1.3815230 *
  12 C       7.4139614    7.4689064    6.4614546    2.7768981 *  2.4036182 *
  13 C       7.3959742    7.2555525    6.1140655    2.4000837 *  2.7754421 *
  14 C       6.3840060    6.0850068    4.8757444    1.4015283 *  2.4227885 *
  15 H       3.3760912    3.8529839    3.4108872    2.6656082 *  2.4572734 *
  16 H       2.1440770 *  3.3790325    3.8593519    4.9710663    4.6415505  
  17 H       1.0786182 *  2.1453475 *  3.3785452    6.1988494    6.1634518  
  18 H       2.1447862 *  1.0815775 *  2.1198344 *  5.8462372    6.2227941  
  19 H       3.3908544    2.1478992 *  1.0786550 *  4.0439293    4.7883696  
  20 H       4.5470689    4.6752766    3.9474286    2.1577602 *  1.0799343 *
  21 H       6.7513543    7.0508273    6.3118885    3.3815930    2.1316464 *
  22 H       8.3761445    8.5005798    7.5251034    3.8566223    3.3808087  
  23 H       8.3450086    8.1627746    6.9874617    3.3759078    3.8561323  
  24 H       6.6838071    6.2224644    4.9522217    2.1501190 *  3.3975326  

               11 C         12 C         13 C         14 C         15 H     

   1 O       4.7064369    4.9582891    4.1694917    2.8107946 *  3.9947571  
   2 C       3.7712765    4.2510252    3.7322320    2.4635786 *  2.7778051 *
   3 C       4.3436043    5.1119435    4.8455925    3.7023385    2.1628458 *
   4 C       4.1321943    5.0445106    5.0582883    4.1778159    1.0805569 *
   5 C       5.2962722    6.3011038    6.4061326    5.5531610    2.1257578 *
   6 C       6.4118158    7.4139614    7.3959742    6.3840060    3.3760912  
   7 C       6.5645133    7.4689064    7.2555525    6.0850068    3.8529839  
   8 C       5.6840239    6.4614546    6.1140655    4.8757444    3.4108872  
   9 C       2.4034725 *  2.7768981 *  2.4000837 *  1.4015283 *  2.6656082 *
  10 C       1.3815230 *  2.4036182 *  2.7754421 *  2.4227885 *  2.4572734 *
  11 C       0.0000000    1.3879435 *  2.3999419 *  2.7812344 *  3.3844118  
  12 C       1.3879435 *  0.0000000    1.3874209 *  2.4050570 *  4.2504010  
  13 C       2.3999419 *  1.3874209 *  0.0000000    1.3786702 *  4.3991524  
  14 C       2.7812344 *  2.4050570 *  1.3786702 *  0.0000000    3.7521013  
  15 H       3.3844118    4.2504010    4.3991524    3.7521013    0.0000000  
  16 H       5.5403236    6.5709720    6.8317811    6.1457369    2.4361802 *
  17 H       7.3342907    8.3802679    8.4223147    7.4428116    4.2620572  
  18 H       7.5783418    8.4728373    8.2064703    6.9862803    4.9341532  
  19 H       6.1528357    6.8092209    6.3067114    4.9908794    4.2931734  
  20 H       2.1344866 *  3.3790991    3.8536988    3.4031253    2.3081074 *
  21 H       1.0809756 *  2.1452111 *  3.3811237    3.8617888    3.8413769  
  22 H       2.1436993 *  1.0797849 *  2.1441014 *  3.3813724    5.1419064  
  23 H       3.3821349    2.1458167 *  1.0806991 *  2.1237129 *  5.3565298  
  24 H       3.8599219    3.3869049    2.1434274 *  1.0787374 *  4.3845841  

               16 H         17 H         18 H         19 H         20 H     

   1 O       5.7225395    6.0400348    4.7910302    2.4419736 *  3.8707174  
   2 C       4.6382830    5.3088355    4.5504178    2.5964704 *  2.7525588 *
   3 C       3.3855204    3.8681291    3.3877065    2.1480327 *  2.7706469 *
   4 C       2.1272836 *  3.3797666    3.8563030    3.3947319    2.5892219 *
   5 C       1.0796737 *  2.1455631 *  3.3820525    3.8583075    3.6170240  
   6 C       2.1440770 *  1.0786182 *  2.1447862 *  3.3908544    4.5470689  
   7 C       3.3790325    2.1453475 *  1.0815775 *  2.1478992 *  4.6752766  
   8 C       3.8593519    3.3785452    2.1198344 *  1.0786550 *  3.9474286  
   9 C       4.9710663    6.1988494    5.8462372    4.0439293    2.1577602 *
  10 C       4.6415505    6.1634518    6.2227941    4.7883696    1.0799343 *
  11 C       5.5403236    7.3342907    7.5783418    6.1528357    2.1344866 *
  12 C       6.5709720    8.3802679    8.4728373    6.8092209    3.3790991  
  13 C       6.8317811    8.4223147    8.2064703    6.3067114    3.8536988  
  14 C       6.1457369    7.4428116    6.9862803    4.9908794    3.4031253  
  15 H       2.4361802 *  4.2620572    4.9341532    4.2931734    2.3081074 *
  16 H       0.0000000    2.4716783 *  4.2757957    4.9376388    4.0510185  
  17 H       2.4716783 *  0.0000000    2.4745571 *  4.2826327    5.4563004  
  18 H       4.2757957    2.4745571 *  0.0000000    2.4663125 *  5.6543540  
  19 H       4.9376388    4.2826327    2.4663125 *  0.0000000    4.5359317  
  20 H       4.0510185    5.4563004    5.6543540    4.5359317    0.0000000  
  21 H       5.6877034    7.5853224    8.0642542    6.8594317    2.4487659 *
  22 H       7.3783963    9.3108627    9.5159579    7.8870822    4.2681540  
  23 H       7.7851591    9.3752546    9.0888587    7.1031918    4.9342608  
  24 H       6.6790488    7.7497629    7.0345277    4.8928672    4.2920364  

               21 H         22 H         23 H         24 H     

   1 O       5.6411434    6.0145615    4.8318276    2.5449196 *
   2 C       4.6442968    5.3306460    4.5858160    2.6489240 *
   3 C       5.0103242    6.1646820    5.7669571    3.9747212  
   4 C       4.6075769    6.0049750    6.0226207    4.6589243  
   5 C       5.5962115    7.2085700    7.3683935    6.0003852  
   6 C       6.7513543    8.3761445    8.3450086    6.6838071  
   7 C       7.0508273    8.5005798    8.1627746    6.2224644  
   8 C       6.3118885    7.5251034    6.9874617    4.9522217  
   9 C       3.3815930    3.8566223    3.3759078    2.1501190 *
  10 C       2.1316464 *  3.3808087    3.8561323    3.3975326  
  11 C       1.0809756 *  2.1436993 *  3.3821349    3.8599219  
  12 C       2.1452111 *  1.0797849 *  2.1458167 *  3.3869049  
  13 C       3.3811237    2.1441014 *  1.0806991 *  2.1434274 *
  14 C       3.8617888    3.3813724    2.1237129 *  1.0787374 *
  15 H       3.8413769    5.1419064    5.3565298    4.3845841  
  16 H       5.6877034    7.3783963    7.7851591    6.6790488  
  17 H       7.5853224    9.3108627    9.3752546    7.7497629  
  18 H       8.0642542    9.5159579    9.0888587    7.0345277  
  19 H       6.8594317    7.8870822    7.1031918    4.8928672  
  20 H       2.4487659 *  4.2681540    4.9342608    4.2920364  
  21 H       0.0000000    2.4724310 *  4.2782310    4.9404004  
  22 H       2.4724310 *  0.0000000    2.4750689 *  4.2775274  
  23 H       4.2782310    2.4750689 *  0.0000000    2.4563873 *
  24 H       4.9404004    4.2775274    2.4563873 *  0.0000000  

  * ... LESS THAN  3.000


     ATOMIC BASIS SET
     ----------------
 THE CONTRACTED PRIMITIVE FUNCTIONS HAVE BEEN UNNORMALIZED
 THE CONTRACTED BASIS FUNCTIONS ARE NOW NORMALIZED TO UNITY

  SHELL TYPE  PRIMITIVE        EXPONENT          CONTRACTION COEFFICIENT(S)

 O         

      1   S       1           322.0370000    0.059239393389
      1   S       2            48.4308000    0.351499960776
      1   S       3            10.4206000    0.707657921031

      2   L       4             7.4029400   -0.404453583190    0.244586106967
      2   L       5             1.5762000    1.221561761397    0.853955373466

      3   L       6             0.3736840    1.000000000000    1.000000000000

 C         

      4   S       7           172.2560000    0.061766907377
      4   S       8            25.9109000    0.358794042852
      4   S       9             5.5333500    0.700713083689

      5   L      10             3.6649800   -0.395895162119    0.236459946619
      5   L      11             0.7705450    1.215834355681    0.860618805716

      6   L      12             0.1958570    1.000000000000    1.000000000000

 C         

      7   S      13           172.2560000    0.061766907377
      7   S      14            25.9109000    0.358794042852
      7   S      15             5.5333500    0.700713083689

      8   L      16             3.6649800   -0.395895162119    0.236459946619
      8   L      17             0.7705450    1.215834355681    0.860618805716

      9   L      18             0.1958570    1.000000000000    1.000000000000

 C         

     10   S      19           172.2560000    0.061766907377
     10   S      20            25.9109000    0.358794042852
     10   S      21             5.5333500    0.700713083689

     11   L      22             3.6649800   -0.395895162119    0.236459946619
     11   L      23             0.7705450    1.215834355681    0.860618805716

     12   L      24             0.1958570    1.000000000000    1.000000000000

 C         

     13   S      25           172.2560000    0.061766907377
     13   S      26            25.9109000    0.358794042852
     13   S      27             5.5333500    0.700713083689

     14   L      28             3.6649800   -0.395895162119    0.236459946619
     14   L      29             0.7705450    1.215834355681    0.860618805716

     15   L      30             0.1958570    1.000000000000    1.000000000000

 C         

     16   S      31           172.2560000    0.061766907377
     16   S      32            25.9109000    0.358794042852
     16   S      33             5.5333500    0.700713083689

     17   L      34             3.6649800   -0.395895162119    0.236459946619
     17   L      35             0.7705450    1.215834355681    0.860618805716

     18   L      36             0.1958570    1.000000000000    1.000000000000

 C         

     19   S      37           172.2560000    0.061766907377
     19   S      38            25.9109000    0.358794042852
     19   S      39             5.5333500    0.700713083689

     20   L      40             3.6649800   -0.395895162119    0.236459946619
     20   L      41             0.7705450    1.215834355681    0.860618805716

     21   L      42             0.1958570    1.000000000000    1.000000000000

 C         

     22   S      43           172.2560000    0.061766907377
     22   S      44            25.9109000    0.358794042852
     22   S      45             5.5333500    0.700713083689

     23   L      46             3.6649800   -0.395895162119    0.236459946619
     23   L      47             0.7705450    1.215834355681    0.860618805716

     24   L      48             0.1958570    1.000000000000    1.000000000000

 C         

     25   S      49           172.2560000    0.061766907377
     25   S      50            25.9109000    0.358794042852
     25   S      51             5.5333500    0.700713083689

     26   L      52             3.6649800   -0.395895162119    0.236459946619
     26   L      53             0.7705450    1.215834355681    0.860618805716

     27   L      54             0.1958570    1.000000000000    1.000000000000

 C         

     28   S      55           172.2560000    0.061766907377
     28   S      56            25.9109000    0.358794042852
     28   S      57             5.5333500    0.700713083689

     29   L      58             3.6649800   -0.395895162119    0.236459946619
     29   L      59             0.7705450    1.215834355681    0.860618805716

     30   L      60             0.1958570    1.000000000000    1.000000000000

 C         

     31   S      61           172.2560000    0.061766907377
     31   S      62            25.9109000    0.358794042852
     31   S      63             5.5333500    0.700713083689

     32   L      64             3.6649800   -0.395895162119    0.236459946619
     32   L      65             0.7705450    1.215834355681    0.860618805716

     33   L      66             0.1958570    1.000000000000    1.000000000000

 C         

     34   S      67           172.2560000    0.061766907377
     34   S      68            25.9109000    0.358794042852
     34   S      69             5.5333500    0.700713083689

     35   L      70             3.6649800   -0.395895162119    0.236459946619
     35   L      71             0.7705450    1.215834355681    0.860618805716

     36   L      72             0.1958570    1.000000000000    1.000000000000

 C         

     37   S      73           172.2560000    0.061766907377
     37   S      74            25.9109000    0.358794042852
     37   S      75             5.5333500    0.700713083689

     38   L      76             3.6649800   -0.395895162119    0.236459946619
     38   L      77             0.7705450    1.215834355681    0.860618805716

     39   L      78             0.1958570    1.000000000000    1.000000000000

 C         

     40   S      79           172.2560000    0.061766907377
     40   S      80            25.9109000    0.358794042852
     40   S      81             5.5333500    0.700713083689

     41   L      82             3.6649800   -0.395895162119    0.236459946619
     41   L      83             0.7705450    1.215834355681    0.860618805716

     42   L      84             0.1958570    1.000000000000    1.000000000000

 H         

     43   S      85             5.4471780    0.156284978695
     43   S      86             0.8245472    0.904690876670

     44   S      87             0.1831916    1.000000000000

 H         

     45   S      88             5.4471780    0.156284978695
     45   S      89             0.8245472    0.904690876670

     46   S      90             0.1831916    1.000000000000

 H         

     47   S      91             5.4471780    0.156284978695
     47   S      92             0.8245472    0.904690876670

     48   S      93             0.1831916    1.000000000000

 H         

     49   S      94             5.4471780    0.156284978695
     49   S      95             0.8245472    0.904690876670

     50   S      96             0.1831916    1.000000000000

 H         

     51   S      97             5.4471780    0.156284978695
     51   S      98             0.8245472    0.904690876670

     52   S      99             0.1831916    1.000000000000

 H         

     53   S     100             5.4471780    0.156284978695
     53   S     101             0.8245472    0.904690876670

     54   S     102             0.1831916    1.000000000000

 H         

     55   S     103             5.4471780    0.156284978695
     55   S     104             0.8245472    0.904690876670

     56   S     105             0.1831916    1.000000000000

 H         

     57   S     106             5.4471780    0.156284978695
     57   S     107             0.8245472    0.904690876670

     58   S     108             0.1831916    1.000000000000

 H         

     59   S     109             5.4471780    0.156284978695
     59   S     110             0.8245472    0.904690876670

     60   S     111             0.1831916    1.000000000000

 H         

     61   S     112             5.4471780    0.156284978695
     61   S     113             0.8245472    0.904690876670

     62   S     114             0.1831916    1.000000000000

 TOTAL NUMBER OF BASIS SET SHELLS             =   62
 NUMBER OF CARTESIAN GAUSSIAN BASIS FUNCTIONS =  146
 NUMBER OF ELECTRONS                          =   96
 CHARGE OF MOLECULE                           =    0
 SPIN MULTIPLICITY                            =    3
 NUMBER OF OCCUPIED ORBITALS (ALPHA)          =   49
 NUMBER OF OCCUPIED ORBITALS (BETA )          =   47
 TOTAL NUMBER OF ATOMS                        =   24
 THE NUCLEAR REPULSION ENERGY IS      782.6775458962

     $CONTRL OPTIONS
     ---------------
 SCFTYP=UHF          RUNTYP=ENERGY       EXETYP=RUN     
 MPLEVL=       0     CITYP =NONE         CCTYP =NONE         VBTYP =NONE    
 DFTTYP=NONE         TDDFT =NONE    
 MULT  =       3     ICHARG=       0     NZVAR =       0     COORD =UNIQUE  
 PP    =NONE         RELWFN=NONE         LOCAL =NONE         NUMGRD=       F
 ISPHER=      -1     NOSYM =       0     MAXIT =      30     UNITS =ANGS    
 PLTORB=       F     MOLPLT=       F     AIMPAC=       F     FRIEND=        
 NPRINT=       7     IREST =       0     GEOM  =INPUT   
 NORMF =       0     NORMP =       0     ITOL  =      20     ICUT  =       9
 INTTYP=BEST         GRDTYP=BEST         QMTTOL= 1.0E-06

     $SYSTEM OPTIONS
     ---------------
  REPLICATED MEMORY=     1000000 WORDS (ON EVERY NODE).
 DISTRIBUTED MEMDDI=           0 MILLION WORDS IN AGGREGATE,
 MEMDDI DISTRIBUTED OVER   1 PROCESSORS IS           0 WORDS/PROCESSOR.
 TOTAL MEMORY REQUESTED ON EACH PROCESSOR=     1000000 WORDS.
 TIMLIM=      525600.00 MINUTES, OR     365.0 DAYS.
 PARALL= F  BALTYP=  DLB     KDIAG=    0  COREFL= F
 MXSEQ2=     300 MXSEQ3=     150  mem10=         0  mem22=         0

 Using Gaussians for PCM contribution to MEP, params: 0.10000E+01 0.10000E-07

          ----------------
          PROPERTIES INPUT
          ----------------

     MOMENTS            FIELD           POTENTIAL          DENSITY
 IEMOM =       1   IEFLD =       0   IEPOT =       0   IEDEN =       0
 WHERE =COMASS     WHERE =NUCLEI     WHERE =NUCLEI     WHERE =NUCLEI  
 OUTPUT=BOTH       OUTPUT=BOTH       OUTPUT=BOTH       OUTPUT=BOTH    
 IEMINT=       0   IEFINT=       0                     IEDINT=       0
                                                       MORB  =       0
          EXTRAPOLATION IN EFFECT
          SOSCF IN EFFECT
          DIIS or SOSCF will be reset if energy rises
 ORBITAL PRINTING OPTION: NPREO=     1   146     2     1

     -------------------------------
     INTEGRAL TRANSFORMATION OPTIONS
     -------------------------------
     NWORD  =            0
     CUTOFF = 1.0E-09     MPTRAN =       0
     DIRTRF =       F     AOINTS =DUP     

          ----------------------
          INTEGRAL INPUT OPTIONS
          ----------------------
 NOPK  =       1 NORDER=       0 SCHWRZ=       T

     ------------------------------------------
     THE POINT GROUP IS C1 , NAXIS= 0, ORDER= 1
     ------------------------------------------

     DIMENSIONS OF THE SYMMETRY SUBSPACES ARE
 A   =  146

 ..... DONE SETTING UP THE RUN .....
 STEP CPU TIME =     0.01 TOTAL CPU TIME =          0.0 (      0.0 MIN)
 TOTAL WALL CLOCK TIME=          0.0 SECONDS, CPU UTILIZATION IS   100.00%

          ********************
          1 ELECTRON INTEGRALS
          ********************
 ...... END OF ONE-ELECTRON INTEGRALS ......
 STEP CPU TIME =     0.01 TOTAL CPU TIME =          0.0 (      0.0 MIN)
 TOTAL WALL CLOCK TIME=          0.0 SECONDS, CPU UTILIZATION IS   100.00%

          -------------
          GUESS OPTIONS
          -------------
          GUESS =HUCKEL            NORB  =       0          NORDER=       0
          MIX   =       F          PRTMO =       F          PUNMO =       F
          TOLZ  = 1.0E-08          TOLE  = 1.0E-05
          SYMDEN=       F          PURIFY=       F

 INITIAL GUESS ORBITALS GENERATED BY HUCKEL   ROUTINE.
 HUCKEL GUESS REQUIRES    198288 WORDS.

 SYMMETRIES FOR INITIAL GUESS ORBITALS FOLLOW.  ALPHA SET(S).
    49 ORBITALS ARE OCCUPIED (   14 CORE ORBITALS).
    15=A       16=A       17=A       18=A       19=A       20=A       21=A   
    22=A       23=A       24=A       25=A       26=A       27=A       28=A   
    29=A       30=A       31=A       32=A       33=A       34=A       35=A   
    36=A       37=A       38=A       39=A       40=A       41=A       42=A   
    43=A       44=A       45=A       46=A       47=A       48=A       49=A   
    50=A       51=A       52=A       53=A       54=A       55=A       56=A   
    57=A       58=A       59=A   

 SYMMETRIES FOR INITIAL GUESS ORBITALS FOLLOW.   BETA SET(S).
    47 ORBITALS ARE OCCUPIED (   14 CORE ORBITALS).
    15=A       16=A       17=A       18=A       19=A       20=A       21=A   
    22=A       23=A       24=A       25=A       26=A       27=A       28=A   
    29=A       30=A       31=A       32=A       33=A       34=A       35=A   
    36=A       37=A       38=A       39=A       40=A       41=A       42=A   
    43=A       44=A       45=A       46=A       47=A       48=A       49=A   
    50=A       51=A       52=A       53=A       54=A       55=A       56=A   
    57=A   
 ...... END OF INITIAL ORBITAL SELECTION ......
 STEP CPU TIME =     0.01 TOTAL CPU TIME =          0.0 (      0.0 MIN)
 TOTAL WALL CLOCK TIME=          0.0 SECONDS, CPU UTILIZATION IS   100.00%

                    ----------------------
                    AO INTEGRAL TECHNOLOGY
                    ----------------------
     S,P,L SHELL ROTATED AXIS INTEGRALS, REPROGRAMMED BY
        KAZUYA ISHIMURA (IMS) AND JOSE SIERRA (SYNSTAR).
     S,P,D,L SHELL ROTATED AXIS INTEGRALS PROGRAMMED BY
        KAZUYA ISHIMURA (INSTITUTE FOR MOLECULAR SCIENCE).
     S,P,D,F,G SHELL TO TOTAL QUARTET ANGULAR MOMENTUM SUM 5,
        ERIC PROGRAM BY GRAHAM FLETCHER (ELORET AND NASA ADVANCED
        SUPERCOMPUTING DIVISION, AMES RESEARCH CENTER).
     S,P,D,F,G,L SHELL GENERAL RYS QUADRATURE PROGRAMMED BY
        MICHEL DUPUIS (PACIFIC NORTHWEST NATIONAL LABORATORY).

          --------------------
          2 ELECTRON INTEGRALS
          --------------------

 THE -PK- OPTION IS OFF, THE INTEGRALS ARE NOT IN SUPERMATRIX FORM.
 STORING   15000 INTEGRALS/RECORD ON DISK, USING 12 BYTES/INTEGRAL.
 TWO ELECTRON INTEGRAL EVALUATION REQUIRES   91309 WORDS OF MEMORY.
 SCHWARZ INEQUALITY OVERHEAD:      9675 INTEGRALS, T=        0.00
 II,JST,KST,LST =  1  1  1  1 NREC =         1 INTLOC =    1
 II,JST,KST,LST =  2  1  1  1 NREC =         1 INTLOC =    2
 II,JST,KST,LST =  3  1  1  1 NREC =         1 INTLOC =   34
 II,JST,KST,LST =  4  1  1  1 NREC =         1 INTLOC =  214
 II,JST,KST,LST =  5  1  1  1 NREC =         1 INTLOC =  664
 II,JST,KST,LST =  6  1  1  1 NREC =         1 INTLOC = 4552
 II,JST,KST,LST =  7  1  1  1 NREC =         1 INTLOC =12892
 II,JST,KST,LST =  8  1  1  1 NREC =         2 INTLOC =  193
 II,JST,KST,LST =  9  1  1  1 NREC =         3 INTLOC = 4397
 II,JST,KST,LST = 10  1  1  1 NREC =         5 INTLOC = 6334
 II,JST,KST,LST = 11  1  1  1 NREC =         5 INTLOC =12727
 II,JST,KST,LST = 12  1  1  1 NREC =         8 INTLOC =11287
 II,JST,KST,LST = 13  1  1  1 NREC =        13 INTLOC =12141
 II,JST,KST,LST = 14  1  1  1 NREC =        14 INTLOC = 9463
 II,JST,KST,LST = 15  1  1  1 NREC =        19 INTLOC = 8550
 II,JST,KST,LST = 16  1  1  1 NREC =        28 INTLOC =12299
 II,JST,KST,LST = 17  1  1  1 NREC =        30 INTLOC = 2894
 II,JST,KST,LST = 18  1  1  1 NREC =        38 INTLOC =12847
 II,JST,KST,LST = 19  1  1  1 NREC =        54 INTLOC = 2040
 II,JST,KST,LST = 20  1  1  1 NREC =        56 INTLOC = 9024
 II,JST,KST,LST = 21  1  1  1 NREC =        72 INTLOC =10908
 II,JST,KST,LST = 22  1  1  1 NREC =        98 INTLOC = 6552
 II,JST,KST,LST = 23  1  1  1 NREC =       103 INTLOC = 6836
 II,JST,KST,LST = 24  1  1  1 NREC =       134 INTLOC = 2511
 II,JST,KST,LST = 25  1  1  1 NREC =       175 INTLOC = 2214
 II,JST,KST,LST = 26  1  1  1 NREC =       179 INTLOC = 6625
 II,JST,KST,LST = 27  1  1  1 NREC =       210 INTLOC = 3645
 II,JST,KST,LST = 28  1  1  1 NREC =       261 INTLOC =12400
 II,JST,KST,LST = 29  1  1  1 NREC =       267 INTLOC = 1724
 II,JST,KST,LST = 30  1  1  1 NREC =       305 INTLOC =  137
 II,JST,KST,LST = 31  1  1  1 NREC =       372 INTLOC = 5082
 II,JST,KST,LST = 32  1  1  1 NREC =       377 INTLOC = 5596
 II,JST,KST,LST = 33  1  1  1 NREC =       408 INTLOC = 5819
 II,JST,KST,LST = 34  1  1  1 NREC =       476 INTLOC = 1997
 II,JST,KST,LST = 35  1  1  1 NREC =       481 INTLOC = 6311
 II,JST,KST,LST = 36  1  1  1 NREC =       517 INTLOC =  755
 II,JST,KST,LST = 37  1  1  1 NREC =       586 INTLOC =  182
 II,JST,KST,LST = 38  1  1  1 NREC =       593 INTLOC =13303
 II,JST,KST,LST = 39  1  1  1 NREC =       647 INTLOC = 2285
 II,JST,KST,LST = 40  1  1  1 NREC =       742 INTLOC =13848
 II,JST,KST,LST = 41  1  1  1 NREC =       757 INTLOC =14779
 II,JST,KST,LST = 42  1  1  1 NREC =       851 INTLOC = 5886
 II,JST,KST,LST = 43  1  1  1 NREC =      1000 INTLOC = 6156
 II,JST,KST,LST = 44  1  1  1 NREC =      1030 INTLOC = 4201
 II,JST,KST,LST = 45  1  1  1 NREC =      1077 INTLOC =  474
 II,JST,KST,LST = 46  1  1  1 NREC =      1096 INTLOC = 6689
 II,JST,KST,LST = 47  1  1  1 NREC =      1131 INTLOC =11552
 II,JST,KST,LST = 48  1  1  1 NREC =      1149 INTLOC = 5167
 II,JST,KST,LST = 49  1  1  1 NREC =      1178 INTLOC = 2072
 II,JST,KST,LST = 50  1  1  1 NREC =      1196 INTLOC = 6890
 II,JST,KST,LST = 51  1  1  1 NREC =      1228 INTLOC =14477
 II,JST,KST,LST = 52  1  1  1 NREC =      1256 INTLOC = 7747
 II,JST,KST,LST = 53  1  1  1 NREC =      1302 INTLOC =  506
 II,JST,KST,LST = 54  1  1  1 NREC =      1337 INTLOC = 1490
 II,JST,KST,LST = 55  1  1  1 NREC =      1393 INTLOC = 4175
 II,JST,KST,LST = 56  1  1  1 NREC =      1415 INTLOC =13240
 II,JST,KST,LST = 57  1  1  1 NREC =      1456 INTLOC =11937
 II,JST,KST,LST = 58  1  1  1 NREC =      1476 INTLOC =12872
 II,JST,KST,LST = 59  1  1  1 NREC =      1509 INTLOC =14241
 II,JST,KST,LST = 60  1  1  1 NREC =      1531 INTLOC = 4730
 II,JST,KST,LST = 61  1  1  1 NREC =      1569 INTLOC = 2414
 II,JST,KST,LST = 62  1  1  1 NREC =      1600 INTLOC =14768
 SCHWARZ INEQUALITY TEST SKIPPED     1211002 INTEGRAL BLOCKS.
 TOTAL NUMBER OF NONZERO TWO-ELECTRON INTEGRALS =            24807091
       1654 INTEGRAL RECORDS WERE STORED ON DISK FILE  8.
  ...... END OF TWO-ELECTRON INTEGRALS .....
 STEP CPU TIME =     0.57 TOTAL CPU TIME =          0.6 (      0.0 MIN)
 TOTAL WALL CLOCK TIME=          0.6 SECONDS, CPU UTILIZATION IS   100.00%

          ---------------------------
                  UHF SCF CALCULATION
          ---------------------------

     NUCLEAR ENERGY =       782.6775458962
     MAXIT = 30     NPUNCH=  2     MULT=  3
     EXTRAP=T  DAMP=F  SHIFT=F  RSTRCT=F  DIIS=F  SOSCF=T
     DENSITY MATRIX CONV=  1.00E-05
     SOSCF WILL OPTIMIZE    4753 ALPHA AND    4653 BETA ROTATION ANGLES.
     SOGTOL= 2.500E-01
     MEMORY REQUIRED FOR UHF/ROHF ITERS=    311338 WORDS.

 ITER EX      TOTAL ENERGY        E CHANGE  DENSITY CHANGE    ORB. GRAD 
   1  0     -568.3334061420  -568.3334061420   0.550528269   0.000000000
          ---------------START SECOND ORDER SCF---------------
   2  1     -569.4609938555    -1.1275877135   0.341486271   0.112306649
   3  2     -569.5429873739    -0.0819935184   0.128963360   0.124691389
   4  3     -569.6859865654    -0.1429991915   0.071338787   0.029178203
   5  4     -569.7027364363    -0.0167498709   0.027141513   0.017133837
   6  5     -569.7075420659    -0.0048056296   0.037456002   0.009440820
   7  6     -569.7117071895    -0.0041651235   0.061121166   0.008360794
   8  7     -569.7172366930    -0.0055295035   0.055099185   0.013944883
   9  8     -569.7211113660    -0.0038746730   0.025373288   0.011170895
  10  9     -569.7237766448    -0.0026652789   0.031484205   0.003510283
  11 10     -569.7250001989    -0.0012235541   0.011574906   0.002854099
  12 11     -569.7253420929    -0.0003418940   0.011567856   0.001935819
  13 12     -569.7256101048    -0.0002680120   0.004561549   0.001001120
  14 13     -569.7256993443    -0.0000892395   0.005703297   0.000747158
  15 14     -569.7257503433    -0.0000509989   0.002780915   0.000320853
  16 15     -569.7257618494    -0.0000115062   0.000931025   0.000216078
  17 16     -569.7257640727    -0.0000022233   0.000307553   0.000092781
  18 17     -569.7257643931    -0.0000003204   0.000118675   0.000026320
  19 18     -569.7257644626    -0.0000000695   0.000080939   0.000017875
  20 19     -569.7257644794    -0.0000000169   0.000059164   0.000014632
  21 20     -569.7257644863    -0.0000000068   0.000067850   0.000011591
  22 21     -569.7257644921    -0.0000000058   0.000058499   0.000007086
  23 22     -569.7257644953    -0.0000000032   0.000038288   0.000003283
  24 23     -569.7257644966    -0.0000000013   0.000012168   0.000001796
  25 24     -569.7257644970    -0.0000000004   0.000004468   0.000001133
  26 25     -569.7257644970    -0.0000000001   0.000002221   0.000000295

          -----------------
          DENSITY CONVERGED
          -----------------
     TIME TO FORM FOCK OPERATORS=       5.6 SECONDS (       0.2 SEC/ITER)
     TIME TO SOLVE SCF EQUATIONS=       0.2 SECONDS (       0.0 SEC/ITER)

 FINAL UHF ENERGY IS     -569.7257644970 AFTER  26 ITERATIONS

          --------------------
          SPIN SZ   =    1.000
          S-SQUARED =    3.080
          --------------------

  ----- ALPHA SET ----- 

          ------------
          EIGENVECTORS
          ------------

                      1          2          3          4          5
                  -20.5654   -11.2424   -11.1957   -11.1910   -11.1883
                     A          A          A          A          A   
    1  O  1  S    0.983554   0.000382   0.000048   0.000055  -0.000025
    2  O  1  S    0.102587   0.003106   0.000139   0.000231  -0.000265
    3  O  1  X   -0.000102   0.000002  -0.000024   0.000196  -0.000061
    4  O  1  Y    0.002305  -0.000082  -0.000186  -0.000061  -0.000061
    5  O  1  Z    0.003923  -0.000069  -0.000138  -0.000128  -0.000048
    6  O  1  S   -0.062866  -0.010288  -0.001990  -0.001671   0.000582
    7  O  1  X    0.000257   0.000113   0.001675  -0.002062   0.000827
    8  O  1  Y   -0.008766  -0.003046  -0.000077  -0.000501   0.000343
    9  O  1  Z   -0.014862  -0.005373  -0.000583  -0.000858   0.000014
   10  C  2  S    0.000274   0.986828   0.002280   0.003151   0.001550
   11  C  2  S    0.002776   0.100554  -0.001493  -0.002307  -0.000707
   12  C  2  X   -0.000072  -0.000294   0.001045  -0.001113   0.000332
   13  C  2  Y   -0.000469  -0.000283  -0.000166  -0.000356  -0.000218
   14  C  2  Z   -0.000954  -0.000503  -0.000114  -0.000713  -0.000075
   15  C  2  S    0.004085  -0.075992   0.014470   0.020178   0.009920
   16  C  2  X    0.004663   0.003171  -0.015674   0.014538  -0.011289
   17  C  2  Y   -0.021889  -0.017136   0.000587   0.002851  -0.000663
   18  C  2  Z   -0.036663  -0.028800   0.001067   0.005268   0.003090
   19  C  3  S    0.000036  -0.003691  -0.013392   0.986839  -0.012400
   20  C  3  S    0.000204  -0.003102  -0.001604   0.100646  -0.000776
   21  C  3  X    0.000979   0.001762   0.000889   0.000153  -0.000029
   22  C  3  Y   -0.000367   0.000273   0.000336  -0.000294   0.000134
   23  C  3  Z   -0.001074  -0.000229  -0.000202  -0.000119   0.000354
   24  C  3  S    0.007527   0.028071  -0.000718  -0.101489  -0.002889
   25  C  3  X   -0.022577  -0.027899  -0.006116  -0.007039   0.000285
   26  C  3  Y    0.004259  -0.001559  -0.002936   0.001078  -0.003047
   27  C  3  Z    0.017077   0.007380  -0.001811  -0.000088  -0.008813
   28  C  4  S    0.000094  -0.000999   0.001496  -0.024997   0.012504
   29  C  4  S    0.000252   0.000142   0.000500  -0.005898   0.001819
   30  C  4  X    0.000256   0.000376   0.000308  -0.000268   0.000070
   31  C  4  Y    0.000276   0.000560   0.000251   0.000493  -0.000030
   32  C  4  Z    0.000501   0.000680   0.000487   0.001451   0.000709
   33  C  4  S   -0.011141  -0.011388  -0.003402   0.029186  -0.001947
   34  C  4  X    0.004369   0.003663  -0.000051   0.005488   0.000344
   35  C  4  Y    0.001634   0.001079  -0.001093  -0.004396  -0.001880
   36  C  4  Z    0.007918   0.006711  -0.004686  -0.016725  -0.010404
   37  C  5  S   -0.000026  -0.001101  -0.001985  -0.001727  -0.001401
   38  C  5  S   -0.000248  -0.000927  -0.000732   0.000030  -0.000502
   39  C  5  X   -0.000155   0.000004   0.000141   0.000515   0.000108
   40  C  5  Y    0.000033   0.000047   0.000031   0.000137   0.000074
   41  C  5  Z    0.000264   0.000436   0.000125   0.000311  -0.000085
   42  C  5  S   -0.001851   0.001909   0.003232  -0.008695   0.003671
   43  C  5  X    0.002601   0.002066  -0.002825  -0.002568  -0.004497
   44  C  5  Y    0.000512  -0.000230  -0.000728   0.001916  -0.000937
   45  C  5  Z   -0.001760  -0.004613  -0.000619   0.006975   0.001616
   46  C  6  S   -0.000035  -0.000287  -0.000073  -0.006528   0.001327
   47  C  6  S   -0.000196  -0.000103  -0.000033  -0.001480   0.000198
   48  C  6  X    0.000188   0.000235  -0.000007   0.000207  -0.000123
   49  C  6  Y    0.000019   0.000055  -0.000044   0.000055  -0.000053
   50  C  6  Z   -0.000219  -0.000049  -0.000086   0.000047  -0.000024
   51  C  6  S    0.001983  -0.002015   0.001112   0.011902   0.001180
   52  C  6  X   -0.000395   0.002022   0.000292  -0.005733  -0.000309
   53  C  6  Y   -0.001110  -0.000137   0.000297  -0.002198   0.000664
   54  C  6  Z   -0.002455  -0.001197   0.000709  -0.002721   0.001778
   55  C  7  S    0.000093  -0.000519  -0.000436  -0.001092  -0.000667
   56  C  7  S    0.000461  -0.000464  -0.000181   0.000262  -0.000226
   57  C  7  X    0.000196   0.000287   0.000065   0.000566   0.000023
   58  C  7  Y    0.000167   0.000150   0.000024   0.000171   0.000006
   59  C  7  Z    0.000361   0.000177   0.000122   0.000317  -0.000002
   60  C  7  S   -0.006307   0.001326   0.001285  -0.010266   0.001226
   61  C  7  X    0.003553  -0.001722  -0.000263   0.005963  -0.000204
   62  C  7  Y   -0.000337  -0.001049  -0.000379  -0.000485   0.000170
   63  C  7  Z   -0.003673  -0.001839  -0.001078  -0.005806   0.000809
   64  C  8  S   -0.000169  -0.001776  -0.004478  -0.025942  -0.002980
   65  C  8  S   -0.000683  -0.001209  -0.001127  -0.006223  -0.000364
   66  C  8  X   -0.000825   0.000244   0.000231   0.000756   0.000212
   67  C  8  Y   -0.000169  -0.000070   0.000051  -0.000141   0.000050
   68  C  8  Z   -0.000231   0.000153  -0.000019  -0.000877   0.000003
   69  C  8  S    0.018059   0.010600   0.003598   0.034048  -0.002241
   70  C  8  X   -0.005240  -0.007253  -0.003635  -0.012225   0.000925
   71  C  8  Y    0.001449   0.000304   0.000205   0.002051   0.000270
   72  C  8  Z    0.009343   0.004100   0.001941   0.014569   0.000211
   73  C  9  S    0.000014  -0.002786   0.987146   0.013368   0.017730
   74  C  9  S    0.000035  -0.002193   0.100686   0.001086  -0.001343
   75  C  9  X   -0.000547  -0.001084   0.000030  -0.000615   0.001061
   76  C  9  Y   -0.000360  -0.000285   0.000022  -0.000238  -0.001671
   77  C  9  Z   -0.000237   0.000088  -0.000160   0.000159  -0.000927
   78  C  9  S    0.007188   0.023073  -0.099233  -0.002202   0.029465
   79  C  9  X    0.017175   0.023397   0.007266   0.002787  -0.021573
   80  C  9  Y    0.009266   0.006318   0.000406   0.000234   0.021234
   81  C  9  Z    0.005318  -0.000417   0.000130  -0.002392   0.017642
   82  C 10  S   -0.000001  -0.001689  -0.019482   0.012156   0.985954
   83  C 10  S   -0.000216  -0.000382  -0.005204   0.001658   0.101700
   84  C 10  X   -0.000313  -0.000778   0.000137  -0.000200  -0.000820
   85  C 10  Y    0.000273   0.000446   0.001213   0.000268  -0.001294
   86  C 10  Z    0.000251   0.000820   0.000881   0.000205   0.000340
   87  C 10  S   -0.004664  -0.008095   0.029214  -0.003415  -0.102543
   88  C 10  X   -0.003675  -0.000590  -0.002713   0.000671   0.019059
   89  C 10  Y    0.002454   0.001990  -0.015519  -0.002958   0.022340
   90  C 10  Z    0.000711  -0.000959  -0.008176  -0.001377   0.001936
   91  C 11  S   -0.000016  -0.001309  -0.001666  -0.002101  -0.014487
   92  C 11  S   -0.000175  -0.001095   0.000011  -0.000607  -0.006011
   93  C 11  X    0.000039  -0.000137  -0.000575  -0.000131  -0.001162
   94  C 11  Y    0.000184   0.000307   0.000180   0.000039   0.000734
   95  C 11  Z    0.000103   0.000145   0.000211   0.000060   0.000730
   96  C 11  S   -0.001658   0.004772  -0.008887   0.002527   0.041695
   97  C 11  X   -0.000774   0.001562   0.000973   0.002128   0.014611
   98  C 11  Y   -0.000976  -0.003944   0.006342   0.000169  -0.016470
   99  C 11  Z    0.000271  -0.001789   0.003516  -0.000731  -0.012703
  100  C 12  S   -0.000040  -0.000316  -0.006784  -0.000112  -0.014846
  101  C 12  S   -0.000227  -0.000114  -0.001527  -0.000014  -0.001060
  102  C 12  X   -0.000125  -0.000171  -0.000257   0.000014  -0.000742
  103  C 12  Y   -0.000197  -0.000114   0.000009  -0.000045  -0.000734
  104  C 12  Z    0.000024   0.000050   0.000081  -0.000049  -0.000069
  105  C 12  S    0.002061  -0.001645   0.011468   0.000581  -0.014193
  106  C 12  X    0.001283  -0.001885   0.005973  -0.000381  -0.009131
  107  C 12  Y   -0.000861  -0.000553  -0.000799   0.000499   0.001969
  108  C 12  Z   -0.001349   0.000171  -0.002856   0.000423   0.004112
  109  C 13  S    0.000078  -0.000776  -0.001211  -0.000467  -0.003783
  110  C 13  S    0.000364  -0.000660   0.000182  -0.000148  -0.001092
  111  C 13  X   -0.000258  -0.000309  -0.000636  -0.000047  -0.000084
  112  C 13  Y    0.000148   0.000019   0.000113   0.000066  -0.000129
  113  C 13  Z    0.000186   0.000224   0.000231  -0.000001  -0.000023
  114  C 13  S   -0.006315   0.002693  -0.010059   0.001193   0.013847
  115  C 13  X   -0.002827   0.002422  -0.004399   0.000441   0.006035
  116  C 13  Y   -0.002715  -0.000423  -0.006312  -0.000443   0.004835
  117  C 13  Z   -0.000003  -0.001354  -0.001598  -0.000262   0.000408
  118  C 14  S   -0.000123  -0.002022  -0.021754  -0.008720  -0.039590
  119  C 14  S   -0.000524  -0.001147  -0.005918  -0.001333  -0.003864
  120  C 14  X    0.000708  -0.000576  -0.000665  -0.000154  -0.000503
  121  C 14  Y   -0.000074   0.000056  -0.001044  -0.000116  -0.000713
  122  C 14  Z   -0.000115  -0.000062  -0.000387   0.000099  -0.000199
  123  C 14  S    0.013341   0.007022   0.033695   0.002513  -0.008137
  124  C 14  X   -0.000449   0.005408   0.008706   0.002245   0.006147
  125  C 14  Y    0.007995   0.004832   0.015697   0.001443  -0.007532
  126  C 14  Z    0.003036   0.000867   0.005572   0.000047  -0.006243
  127  H 15  S    0.000513   0.000425  -0.000531  -0.000436  -0.001103
  128  H 15  S    0.000393   0.000672   0.003952   0.002681   0.008537
  129  H 16  S    0.000278   0.000385  -0.000104  -0.000482  -0.000320
  130  H 16  S    0.000747   0.001729   0.000077  -0.001184  -0.000991
  131  H 17  S    0.000096  -0.000085  -0.000170   0.000142  -0.000169
  132  H 17  S    0.000470  -0.000075  -0.000245   0.001572  -0.000312
  133  H 18  S   -0.000293  -0.000088  -0.000147  -0.000510  -0.000003
  134  H 18  S   -0.001147   0.000472  -0.000085  -0.001318   0.000144
  135  H 19  S    0.000026  -0.000270  -0.000136  -0.000479   0.000031
  136  H 19  S    0.002224   0.000751   0.000862   0.002273   0.000620
  137  H 20  S    0.000250  -0.000073  -0.000288  -0.000387  -0.002234
  138  H 20  S    0.000709   0.000889   0.002280   0.002955   0.004490
  139  H 21  S    0.000139   0.000212  -0.000447  -0.000081   0.000134
  140  H 21  S    0.000438   0.001596  -0.001020   0.000032   0.005239
  141  H 22  S    0.000101  -0.000184   0.000157  -0.000124  -0.000509
  142  H 22  S    0.000523  -0.000238   0.001612  -0.000205  -0.001770
  143  H 23  S   -0.000161  -0.000078  -0.000468  -0.000087   0.000168
  144  H 23  S   -0.000767   0.000656  -0.001154  -0.000008   0.001760
  145  H 24  S    0.000341  -0.000253  -0.000414  -0.000109  -0.000704
  146  H 24  S    0.001946   0.001199   0.002166   0.000305  -0.003090

                      6          7          8          9         10
                  -11.1869   -11.1853   -11.1837   -11.1831   -11.1810
                     A          A          A          A          A   
    1  O  1  S   -0.000004  -0.000010  -0.000005  -0.000003  -0.000009
    2  O  1  S   -0.000063  -0.000103  -0.000113  -0.000041  -0.000084
    3  O  1  X   -0.000147  -0.000052   0.000050   0.000239   0.000070
    4  O  1  Y   -0.000042  -0.000028  -0.000017   0.000006   0.000013
    5  O  1  Z   -0.000028  -0.000008  -0.000079  -0.000061  -0.000020
    6  O  1  S    0.000448   0.000390  -0.000210   0.000452   0.000365
    7  O  1  X    0.001208   0.000381  -0.000733  -0.001663  -0.000452
    8  O  1  Y    0.000116   0.000108  -0.000242  -0.000113  -0.000091
    9  O  1  Z    0.000040   0.000007   0.000089   0.000141   0.000057
   10  C  2  S    0.001897   0.000332   0.000951   0.001730   0.000296
   11  C  2  S   -0.000880  -0.000324  -0.000419  -0.000816  -0.000302
   12  C  2  X    0.000402  -0.000008  -0.000210  -0.000485   0.000028
   13  C  2  Y    0.000181   0.000015  -0.000027  -0.000061  -0.000026
   14  C  2  Z   -0.000056  -0.000010  -0.000239   0.000091   0.000009
   15  C  2  S    0.009890   0.005935   0.009020   0.009846   0.006069
   16  C  2  X   -0.007424  -0.003441   0.010113   0.008784   0.003295
   17  C  2  Y    0.002252   0.000810   0.002430   0.002772   0.001669
   18  C  2  Z    0.003295   0.001982   0.000603   0.003932   0.001946
   19  C  3  S    0.007614   0.000058   0.021869   0.027269   0.007256
   20  C  3  S    0.000488   0.000011  -0.000892  -0.001106  -0.000278
   21  C  3  X    0.000317   0.000015  -0.000494  -0.001924  -0.000553
   22  C  3  Y    0.000020   0.000037  -0.000564  -0.000283  -0.000201
   23  C  3  Z    0.000122   0.000053  -0.002118   0.000107  -0.000328
   24  C  3  S   -0.001597  -0.000602   0.026704   0.032362   0.012436
   25  C  3  X   -0.002166   0.000441   0.013124   0.031446   0.011844
   26  C  3  Y   -0.000965  -0.000280   0.010621   0.007191   0.004007
   27  C  3  Z   -0.001752  -0.000820   0.028913   0.005115   0.006944
   28  C  4  S   -0.003119   0.003113   0.981845   0.096199   0.018381
   29  C  4  S   -0.000476   0.000342   0.100763   0.010094   0.002367
   30  C  4  X    0.000021  -0.000016   0.001216   0.000027  -0.000813
   31  C  4  Y   -0.000033   0.000026   0.000321   0.000368  -0.000232
   32  C  4  Z    0.000096   0.000007  -0.000865   0.000809  -0.000254
   33  C  4  S    0.001590   0.000001  -0.100023  -0.024114  -0.019509
   34  C  4  X    0.000604  -0.000135  -0.022244  -0.013337  -0.010294
   35  C  4  Y   -0.000119  -0.000276  -0.001051  -0.001677  -0.000286
   36  C  4  Z   -0.001690  -0.000730   0.016940   0.005903   0.006970
   37  C  5  S   -0.000410  -0.000250  -0.014006  -0.006889  -0.019945
   38  C  5  S   -0.000090  -0.000076  -0.005911  -0.002064  -0.006555
   39  C  5  X    0.000052   0.000034   0.001048   0.000096  -0.001044
   40  C  5  Y    0.000022  -0.000006   0.000494   0.000129   0.000153
   41  C  5  Z    0.000019  -0.000001   0.001148   0.000357   0.001250
   42  C  5  S   -0.000163   0.000457   0.040023   0.018808   0.042678
   43  C  5  X   -0.000374  -0.000406  -0.010345  -0.001847   0.009589
   44  C  5  Y   -0.000030  -0.000031  -0.007667  -0.003312  -0.004786
   45  C  5  Z    0.000408   0.000015  -0.020838  -0.010578  -0.022959
   46  C  6  S   -0.000482   0.000095  -0.016103  -0.025912   0.986303
   47  C  6  S   -0.000095   0.000015  -0.001234  -0.002158   0.100546
   48  C  6  X   -0.000006  -0.000016   0.000894   0.000193  -0.001221
   49  C  6  Y    0.000001  -0.000002   0.000038   0.000344  -0.000446
   50  C  6  Z    0.000011   0.000003  -0.000605   0.000878  -0.000617
   51  C  6  S    0.000744   0.000058  -0.012809  -0.014900  -0.096391
   52  C  6  X   -0.000129   0.000126   0.007698   0.009698   0.023548
   53  C  6  Y   -0.000072   0.000051   0.002675   0.003133   0.008678
   54  C  6  Z   -0.000106   0.000150   0.004275   0.004148   0.011833
   55  C  7  S   -0.000381  -0.000226  -0.003095  -0.013422  -0.017803
   56  C  7  S   -0.000102  -0.000076  -0.000711  -0.005954  -0.006372
   57  C  7  X    0.000031  -0.000007   0.000038   0.001672   0.000524
   58  C  7  Y   -0.000010  -0.000009  -0.000001   0.000416  -0.000371
   59  C  7  Z    0.000021  -0.000003  -0.000116   0.000286  -0.001532
   60  C  7  S    0.000306   0.000723   0.010490   0.042258   0.042927
   61  C  7  X   -0.000220  -0.000368  -0.005081  -0.024943  -0.015038
   62  C  7  Y   -0.000102  -0.000071  -0.000031  -0.003680   0.003385
   63  C  7  Z   -0.000592  -0.000099   0.003074   0.002987   0.020111
   64  C  8  S   -0.004868  -0.002180  -0.097114   0.981607   0.024054
   65  C  8  S   -0.000727  -0.000253  -0.009805   0.100214   0.002882
   66  C  8  X    0.000138   0.000096   0.000576   0.000068  -0.000720
   67  C  8  Y    0.000095   0.000032  -0.000103   0.000451  -0.000290
   68  C  8  Z   -0.000003   0.000018  -0.000718   0.001268  -0.000468
   69  C  8  S    0.001236  -0.000496  -0.001062  -0.096910  -0.018715
   70  C  8  X   -0.001411  -0.000536  -0.004305  -0.000670  -0.000018
   71  C  8  Y   -0.000261  -0.000228  -0.003040  -0.009126  -0.003739
   72  C  8  Z    0.000756  -0.000335  -0.007281  -0.027166  -0.011903
   73  C  9  S    0.021640   0.007354  -0.001755   0.004633   0.000184
   74  C  9  S   -0.001641  -0.000326   0.000131  -0.000173  -0.000009
   75  C  9  X    0.001886   0.000630  -0.000046  -0.000417  -0.000039
   76  C  9  Y    0.000831  -0.000121   0.000274   0.000042   0.000045
   77  C  9  Z   -0.000096  -0.000262   0.000183   0.000067   0.000066
   78  C  9  S    0.033167   0.013458  -0.001328   0.001131  -0.000265
   79  C  9  X   -0.030809  -0.013044   0.001918   0.003602  -0.000030
   80  C  9  Y   -0.006471   0.002662  -0.005600  -0.001174  -0.000736
   81  C  9  Z    0.006354   0.005292  -0.004381  -0.001998  -0.000668
   82  C 10  S    0.038961   0.015907  -0.012270   0.002206  -0.001409
   83  C 10  S    0.004261   0.002129  -0.000709   0.000112  -0.000069
   84  C 10  X   -0.000114   0.000847  -0.000119  -0.000068   0.000054
   85  C 10  Y    0.000715  -0.000016   0.000453   0.000127   0.000010
   86  C 10  Z    0.000557  -0.000300   0.000101  -0.000005   0.000026
   87  C 10  S   -0.017777  -0.019158   0.000562   0.000653   0.000298
   88  C 10  X    0.011123   0.008658   0.000463  -0.000467  -0.000100
   89  C 10  Y    0.007321   0.008908  -0.006517  -0.001726  -0.000598
   90  C 10  Z   -0.000837   0.001261  -0.002846  -0.000340  -0.000310
   91  C 11  S   -0.006261  -0.019977  -0.001084  -0.001619  -0.000550
   92  C 11  S   -0.001711  -0.006567  -0.000243  -0.000301  -0.000087
   93  C 11  X   -0.000092   0.000780  -0.000014  -0.000080  -0.000035
   94  C 11  Y    0.000215   0.001396  -0.000099   0.000035  -0.000003
   95  C 11  Z    0.000161   0.000426   0.000056   0.000056  -0.000008
   96  C 11  S    0.016533   0.042746   0.001409   0.000273   0.000134
   97  C 11  X    0.003306  -0.004850   0.002297   0.000349   0.000246
   98  C 11  Y   -0.007753  -0.022869   0.002021   0.000143   0.000146
   99  C 11  Z   -0.004992  -0.009896  -0.000218  -0.000163   0.000059
  100  C 12  S   -0.031078   0.986192  -0.003230   0.001592  -0.000122
  101  C 12  S   -0.002683   0.100492  -0.000300   0.000135  -0.000006
  102  C 12  X   -0.000298   0.001295   0.000060  -0.000014   0.000015
  103  C 12  Y    0.000754  -0.000187   0.000036   0.000013   0.000011
  104  C 12  Z    0.000566  -0.000609  -0.000032   0.000007  -0.000001
  105  C 12  S   -0.013833  -0.096677   0.001187   0.000066   0.000076
  106  C 12  X   -0.009589  -0.024867   0.000228  -0.000078  -0.000104
  107  C 12  Y    0.001159   0.003928   0.001019   0.000047   0.000093
  108  C 12  Z    0.003988   0.011670   0.000629   0.000054   0.000061
  109  C 13  S   -0.013864  -0.017299  -0.000921  -0.001093  -0.000382
  110  C 13  S   -0.005884  -0.006346  -0.000210  -0.000244  -0.000088
  111  C 13  X   -0.001561  -0.000220  -0.000050  -0.000086  -0.000003
  112  C 13  Y   -0.000209  -0.001489  -0.000012  -0.000003   0.000003
  113  C 13  Z    0.000464  -0.000712   0.000001   0.000003  -0.000010
  114  C 13  S    0.041518   0.043020   0.000465   0.000518   0.000563
  115  C 13  X    0.023075   0.010738  -0.000023   0.000444   0.000303
  116  C 13  Y    0.009199   0.021775   0.000536  -0.000103   0.000020
  117  C 13  Z   -0.003232   0.007765   0.000287  -0.000069  -0.000057
  118  C 14  S    0.985517   0.030329   0.002820   0.004687   0.000614
  119  C 14  S    0.100620   0.003549   0.000236   0.000272   0.000039
  120  C 14  X   -0.000332   0.000774  -0.000118  -0.000093  -0.000070
  121  C 14  Y    0.001151  -0.000209  -0.000039  -0.000066  -0.000009
  122  C 14  Z    0.000841  -0.000397   0.000051   0.000079   0.000035
  123  C 14  S   -0.098156  -0.019694  -0.001660   0.000345  -0.000564
  124  C 14  X    0.004949   0.002103  -0.000992   0.000583   0.000362
  125  C 14  Y   -0.023906  -0.010746   0.000107   0.001073  -0.000111
  126  C 14  Z   -0.015743  -0.006672   0.000467   0.000113  -0.000198
  127  H 15  S    0.000022  -0.000016  -0.002334  -0.000913  -0.000681
  128  H 15  S    0.000736   0.000286   0.005029  -0.002214  -0.001807
  129  H 16  S   -0.000048  -0.000031   0.000141   0.000260   0.000117
  130  H 16  S   -0.000083  -0.000035   0.005076   0.002646   0.005326
  131  H 17  S   -0.000027  -0.000030  -0.000446  -0.000527  -0.002593
  132  H 17  S    0.000029  -0.000061  -0.001601  -0.001968   0.005095
  133  H 18  S   -0.000044  -0.000010   0.000163   0.000090   0.000104
  134  H 18  S   -0.000006   0.000047   0.001384   0.005208   0.005325
  135  H 19  S   -0.000060  -0.000059  -0.000467  -0.002725  -0.000732
  136  H 19  S    0.000347  -0.000011  -0.003101   0.004795  -0.002017
  137  H 20  S   -0.000806  -0.000676  -0.000728  -0.000005   0.000020
  138  H 20  S   -0.002576  -0.001944   0.005363   0.001118   0.000298
  139  H 21  S    0.000239   0.000119  -0.000193  -0.000024  -0.000023
  140  H 21  S    0.002283   0.005319  -0.000663   0.000036  -0.000053
  141  H 22  S   -0.000491  -0.002556  -0.000085  -0.000035  -0.000022
  142  H 22  S   -0.001936   0.005105  -0.000173   0.000013  -0.000050
  143  H 23  S    0.000099   0.000112   0.000015  -0.000015  -0.000006
  144  H 23  S    0.005124   0.005385   0.000135   0.000120   0.000044
  145  H 24  S   -0.002685  -0.000740   0.000053  -0.000011  -0.000040
  146  H 24  S    0.004665  -0.002027   0.000568   0.000600   0.000039

                     11         12         13         14         15
                  -11.1740   -11.1722   -11.1695   -11.1682    -1.5083
                     A          A          A          A          A   
    1  O  1  S   -0.000017   0.000024  -0.000025   0.000030  -0.228443
    2  O  1  S   -0.000163   0.000149  -0.000224   0.000204   0.218089
    3  O  1  X   -0.000062  -0.000022   0.000064   0.000030  -0.004671
    4  O  1  Y    0.000036  -0.000011  -0.000044   0.000000   0.054317
    5  O  1  Z   -0.000039  -0.000017  -0.000001  -0.000026   0.092172
    6  O  1  S    0.000862  -0.001256   0.001118  -0.001498   0.771866
    7  O  1  X    0.000421   0.000793  -0.000370  -0.000835  -0.004305
    8  O  1  Y   -0.000106  -0.000050   0.000284  -0.000357   0.073577
    9  O  1  Z    0.000258  -0.000378   0.000159  -0.000299   0.126081
   10  C  2  S    0.001079   0.000677   0.000918   0.000476  -0.102910
   11  C  2  S   -0.000759  -0.000598  -0.000616  -0.000468   0.102777
   12  C  2  X    0.000217   0.000583  -0.000136  -0.000602   0.005090
   13  C  2  Y   -0.000196   0.000145  -0.000070  -0.000054  -0.062663
   14  C  2  Z   -0.000159   0.000001  -0.000221   0.000079  -0.104629
   15  C  2  S    0.001279   0.000445   0.000006  -0.000283   0.126048
   16  C  2  X   -0.001674  -0.007187   0.000774   0.007984  -0.015288
   17  C  2  Y    0.001613  -0.002313   0.000603  -0.000171   0.084112
   18  C  2  Z    0.001479  -0.001181   0.001978  -0.002419   0.139925
   19  C  3  S    0.001938   0.000566   0.002478   0.002105  -0.013925
   20  C  3  S    0.000016  -0.000145   0.000506   0.000717   0.016262
   21  C  3  X    0.000288  -0.000033  -0.000369  -0.000843  -0.013570
   22  C  3  Y   -0.000054  -0.000001  -0.000276  -0.000251  -0.006334
   23  C  3  Z   -0.000014   0.000194  -0.000762  -0.000199  -0.009049
   24  C  3  S   -0.001355   0.003249  -0.013703  -0.016675  -0.037417
   25  C  3  X   -0.000758  -0.001638  -0.004189  -0.007058   0.080044
   26  C  3  Y   -0.000251  -0.001412  -0.001965   0.000256  -0.018674
   27  C  3  Z   -0.000324  -0.004193  -0.004593   0.003022  -0.065878
   28  C  4  S    0.001322   0.001044   0.013769   0.005151  -0.002094
   29  C  4  S   -0.000041  -0.000079  -0.003220  -0.000463   0.000553
   30  C  4  X    0.000048   0.000001  -0.001646  -0.000374  -0.002105
   31  C  4  Y   -0.000044  -0.000017  -0.000437   0.000034  -0.002319
   32  C  4  Z    0.000075  -0.000016  -0.000267   0.000299  -0.004210
   33  C  4  S    0.000796   0.002201   0.038479   0.009096   0.057103
   34  C  4  X    0.000031   0.000408   0.022049   0.007543  -0.003328
   35  C  4  Y    0.000113  -0.000276   0.003874   0.000992  -0.002030
   36  C  4  Z   -0.000743  -0.001469  -0.003244  -0.001488  -0.029890
   37  C  5  S    0.000290  -0.001288   0.985772   0.052407   0.000060
   38  C  5  S    0.000042  -0.000162   0.099066   0.005313   0.001977
   39  C  5  X    0.000004   0.000062  -0.000013  -0.000921   0.000368
   40  C  5  Y    0.000034   0.000029  -0.000421   0.000022  -0.000166
   41  C  5  Z   -0.000016   0.000026  -0.001353   0.000648  -0.001258
   42  C  5  S   -0.000149  -0.000037  -0.093081  -0.017987  -0.005503
   43  C  5  X   -0.000095  -0.000210   0.000343   0.001588  -0.003108
   44  C  5  Y   -0.000108  -0.000032   0.007123   0.002871   0.001045
   45  C  5  Z    0.000343   0.000155   0.023813   0.008630   0.013798
   46  C  6  S    0.000467   0.000268   0.017731   0.017477  -0.000141
   47  C  6  S   -0.000000   0.000018  -0.002344  -0.002850   0.000565
   48  C  6  X    0.000005   0.000002   0.001433   0.000671  -0.000958
   49  C  6  Y    0.000000   0.000011   0.000191   0.000529  -0.000155
   50  C  6  Z    0.000013   0.000038  -0.000336   0.001241   0.000485
   51  C  6  S    0.000475  -0.000166   0.033791   0.037982   0.001085
   52  C  6  X   -0.000172   0.000039  -0.022225  -0.014013  -0.000176
   53  C  6  Y   -0.000052   0.000066  -0.004338  -0.008567   0.002045
   54  C  6  Z   -0.000188   0.000167   0.000915  -0.018184   0.003743
   55  C  7  S   -0.000531  -0.003078  -0.052651   0.985845  -0.000818
   56  C  7  S   -0.000085  -0.000447  -0.005254   0.099268  -0.000585
   57  C  7  X    0.000014   0.000065   0.000245  -0.001247  -0.001290
   58  C  7  Y   -0.000005   0.000001  -0.000282   0.000002  -0.000692
   59  C  7  Z    0.000012  -0.000030  -0.001095   0.000684  -0.000975
   60  C  7  S    0.000190   0.000755  -0.008271  -0.096045   0.020839
   61  C  7  X   -0.000103  -0.000593   0.006418   0.023041  -0.012134
   62  C  7  Y   -0.000089  -0.000005   0.000398   0.000051  -0.000931
   63  C  7  Z   -0.000440   0.000256  -0.002522  -0.013479   0.004502
   64  C  8  S    0.001272   0.000863   0.004885   0.012802  -0.004183
   65  C  8  S   -0.000002   0.000058  -0.000161  -0.003457   0.007397
   66  C  8  X    0.000071   0.000166   0.000120  -0.001364  -0.001985
   67  C  8  Y    0.000071   0.000037  -0.000087  -0.000659  -0.000412
   68  C  8  Z   -0.000009   0.000007  -0.000354  -0.001274   0.000560
   69  C  8  S    0.000479  -0.001511   0.007495   0.041840  -0.058822
   70  C  8  X   -0.000851   0.000261   0.000564   0.009345   0.008783
   71  C  8  Y   -0.000227  -0.000024   0.002008   0.008309  -0.005884
   72  C  8  Z    0.000347   0.000049   0.005937   0.020736  -0.026396
   73  C  9  S    0.002429   0.002111   0.001917   0.000568  -0.014248
   74  C  9  S    0.000537   0.000667  -0.000190  -0.000243   0.016246
   75  C  9  X    0.000549   0.000881  -0.000317  -0.000004   0.014453
   76  C  9  Y   -0.000625   0.000186  -0.000068   0.000161  -0.005021
   77  C  9  Z   -0.000463  -0.000299  -0.000125   0.000068  -0.009455
   78  C  9  S   -0.014531  -0.016883  -0.000268   0.003930  -0.027334
   79  C  9  X    0.004124   0.005298   0.000838   0.003150  -0.060366
   80  C  9  Y   -0.002494   0.003131   0.000303  -0.002933  -0.040133
   81  C  9  Z   -0.002676   0.001018   0.000053  -0.002787  -0.028974
   82  C 10  S    0.013930   0.004777   0.001110   0.000684  -0.002013
   83  C 10  S   -0.003107  -0.000440  -0.000075  -0.000134   0.002189
   84  C 10  X    0.001578   0.000269  -0.000167  -0.000003   0.002950
   85  C 10  Y    0.000227   0.000344   0.000058   0.000013  -0.002911
   86  C 10  Z   -0.000469   0.000105  -0.000026  -0.000031  -0.003323
   87  C 10  S    0.037649   0.008862   0.000200   0.002271   0.037178
   88  C 10  X   -0.020290  -0.006176   0.000543  -0.000441   0.001179
   89  C 10  Y   -0.008688  -0.003423  -0.000142  -0.001484  -0.014390
   90  C 10  Z    0.003208   0.000231   0.000130  -0.000369   0.002140
   91  C 11  S    0.986506   0.035695  -0.000343   0.000567   0.000017
   92  C 11  S    0.099124   0.003628  -0.000036   0.000034   0.001970
   93  C 11  X    0.000291   0.000750   0.000033  -0.000053   0.000102
   94  C 11  Y   -0.001197   0.000816  -0.000012   0.000015  -0.000956
   95  C 11  Z   -0.000724   0.000164   0.000049   0.000046  -0.000470
   96  C 11  S   -0.092856  -0.016003   0.000283  -0.000514  -0.007909
   97  C 11  X   -0.004692  -0.002907  -0.000046   0.000014  -0.005325
   98  C 11  Y    0.021066   0.006927  -0.000018   0.000274   0.008929
   99  C 11  Z    0.012377   0.004611  -0.000284   0.000024   0.003671
  100  C 12  S    0.018070   0.016575   0.000159   0.000267  -0.000130
  101  C 12  S   -0.002401  -0.002873  -0.000012  -0.000022   0.000670
  102  C 12  X   -0.001342  -0.000848  -0.000019  -0.000030   0.000750
  103  C 12  Y   -0.000689   0.000953   0.000003   0.000039   0.000615
  104  C 12  Z    0.000119   0.000821   0.000004   0.000024  -0.000140
  105  C 12  S    0.034524   0.037439   0.000083   0.000092  -0.000437
  106  C 12  X    0.021402   0.016379   0.000042   0.000163  -0.001525
  107  C 12  Y    0.006732  -0.012262  -0.000157   0.000056  -0.000314
  108  C 12  Z   -0.004380  -0.012690  -0.000031   0.000019   0.001899
  109  C 13  S   -0.035938   0.986581   0.001084   0.003049  -0.000749
  110  C 13  S   -0.003577   0.099274   0.000076   0.000182  -0.000270
  111  C 13  X    0.000011   0.001074  -0.000020  -0.000064   0.001369
  112  C 13  Y   -0.001009   0.000935   0.000005  -0.000047  -0.000209
  113  C 13  Z   -0.000529   0.000143  -0.000000  -0.000004  -0.000835
  114  C 13  S   -0.009437  -0.094780   0.000029  -0.000249   0.019060
  115  C 13  X   -0.005941  -0.018908   0.000158   0.000204   0.010293
  116  C 13  Y   -0.004162  -0.017780  -0.000207   0.000337   0.004012
  117  C 13  Z   -0.000183  -0.002790  -0.000086   0.000108  -0.002286
  118  C 14  S    0.005413   0.013488   0.000364   0.000480  -0.004151
  119  C 14  S   -0.000182  -0.003283  -0.000039  -0.000005   0.006583
  120  C 14  X   -0.000026   0.001424  -0.000018  -0.000111   0.002109
  121  C 14  Y   -0.000346  -0.000732  -0.000048  -0.000042   0.001672
  122  C 14  Z   -0.000169  -0.000890   0.000059   0.000019  -0.000391
  123  C 14  S    0.008037   0.040252   0.000478  -0.000867  -0.043257
  124  C 14  X   -0.001589  -0.012453   0.000425  -0.000706   0.004932
  125  C 14  Y    0.005032   0.015022   0.000497   0.000242  -0.022220
  126  C 14  Z    0.003447   0.012644  -0.000155   0.000385  -0.010151
  127  H 15  S    0.000029   0.000006  -0.000039   0.000268  -0.000001
  128  H 15  S    0.000090   0.000338   0.004499   0.001981   0.000978
  129  H 16  S   -0.000035  -0.000021  -0.002293  -0.000496  -0.000900
  130  H 16  S   -0.000073   0.000008   0.005816  -0.000504  -0.005239
  131  H 17  S   -0.000004  -0.000015   0.000015   0.000045  -0.000159
  132  H 17  S    0.000079   0.000001   0.005098   0.005691  -0.001158
  133  H 18  S   -0.000035   0.000036  -0.000296  -0.002342   0.000566
  134  H 18  S   -0.000040   0.000202  -0.001183   0.005428   0.002257
  135  H 19  S   -0.000047   0.000022   0.000237   0.000028   0.001967
  136  H 19  S    0.000169   0.000330   0.002016   0.004934   0.002442
  137  H 20  S   -0.000059   0.000218   0.000025   0.000024   0.000878
  138  H 20  S    0.004584   0.001901  -0.000234   0.000471  -0.000283
  139  H 21  S   -0.002296  -0.000484   0.000001  -0.000015  -0.000452
  140  H 21  S    0.005782  -0.000651   0.000065   0.000031  -0.004019
  141  H 22  S   -0.000003   0.000020  -0.000001  -0.000002  -0.000073
  142  H 22  S    0.005129   0.005522   0.000047   0.000077  -0.001117
  143  H 23  S   -0.000346  -0.002350  -0.000018   0.000034   0.000373
  144  H 23  S   -0.001111   0.005541   0.000018   0.000246   0.001372
  145  H 24  S    0.000207  -0.000028  -0.000025   0.000066   0.000965
  146  H 24  S    0.001933   0.004753   0.000151   0.000433   0.000501

                     16         17         18         19         20
                   -1.1753    -1.1634    -1.0656    -1.0320    -1.0300
                     A          A          A          A          A   
    1  O  1  S    0.031932   0.005986   0.050566   0.006255   0.016274
    2  O  1  S   -0.031724  -0.006057  -0.050984  -0.006274  -0.016483
    3  O  1  X   -0.002799   0.014881  -0.002377  -0.037188   0.022351
    4  O  1  Y    0.003593   0.002016   0.018835  -0.003296   0.006566
    5  O  1  Z    0.006777   0.001413   0.031742   0.004940   0.009966
    6  O  1  S   -0.113928  -0.021472  -0.186378  -0.023047  -0.060754
    7  O  1  X   -0.002048   0.015286  -0.001268  -0.030812   0.018821
    8  O  1  Y   -0.000937   0.001222   0.010324  -0.003053   0.003825
    9  O  1  Z   -0.000852   0.000132   0.017649   0.002788   0.005727
   10  C  2  S   -0.041271  -0.009161  -0.092226  -0.003052  -0.015283
   11  C  2  S    0.049362   0.010853   0.100449   0.003331   0.017602
   12  C  2  X   -0.008089   0.043566  -0.002181  -0.066964   0.043912
   13  C  2  Y    0.025160   0.008561   0.042645  -0.013370   0.005446
   14  C  2  Z    0.043546   0.010413   0.071486   0.002724   0.006170
   15  C  2  S    0.071150   0.015199   0.257825   0.009608   0.041716
   16  C  2  X    0.003610  -0.027545  -0.004786  -0.022885   0.011980
   17  C  2  Y    0.008271  -0.000085   0.036632  -0.006460   0.004746
   18  C  2  Z    0.013357   0.001823   0.060849   0.004788   0.005598
   19  C  3  S   -0.068726  -0.079563  -0.080618   0.045053  -0.047014
   20  C  3  S    0.077668   0.089586   0.087633  -0.047909   0.051248
   21  C  3  X    0.008068   0.039312  -0.052520  -0.014558   0.045443
   22  C  3  Y    0.003903   0.008641  -0.012755   0.004499  -0.019734
   23  C  3  Z    0.012974   0.016817  -0.005143   0.019578  -0.081982
   24  C  3  S    0.101716   0.109004   0.156653  -0.093403   0.089166
   25  C  3  X    0.000246  -0.032519   0.030085   0.010007   0.003241
   26  C  3  Y   -0.005021  -0.019162  -0.002357   0.003265  -0.008171
   27  C  3  Z   -0.012794  -0.032448  -0.016371   0.001205  -0.017091
   28  C  4  S   -0.064208  -0.082464  -0.031479   0.001357   0.083862
   29  C  4  S    0.068397   0.088859   0.031987  -0.000673  -0.088090
   30  C  4  X    0.020305   0.041146  -0.036780   0.020524  -0.041789
   31  C  4  Y   -0.002323   0.000158  -0.018549   0.011323  -0.022452
   32  C  4  Z   -0.025088  -0.025194  -0.042711   0.027053  -0.043158
   33  C  4  S    0.169174   0.213653   0.098081  -0.006903  -0.220086
   34  C  4  X    0.016472   0.038904  -0.014156   0.000733  -0.008891
   35  C  4  Y    0.004082   0.001906  -0.001055  -0.001470  -0.005785
   36  C  4  Z   -0.007223  -0.032985  -0.007078   0.000594  -0.011218
   37  C  5  S   -0.046485  -0.072771   0.045318  -0.040969   0.103503
   38  C  5  S    0.055124   0.084191  -0.048777   0.044741  -0.112868
   39  C  5  X   -0.005448  -0.001722  -0.045117   0.022850   0.016172
   40  C  5  Y   -0.009886  -0.014055  -0.002329   0.000273   0.011591
   41  C  5  Z   -0.030159  -0.046128   0.021593  -0.013924   0.027789
   42  C  5  S    0.045167   0.081091  -0.085317   0.082470  -0.203428
   43  C  5  X    0.006214  -0.002457   0.003846  -0.002694  -0.003455
   44  C  5  Y    0.003758   0.003595   0.001315  -0.000462   0.001251
   45  C  5  Z    0.011653   0.018676   0.006205  -0.000991   0.006918
   46  C  6  S   -0.047555  -0.080146   0.093427  -0.055526   0.051914
   47  C  6  S    0.052002   0.086957  -0.099500   0.058846  -0.054968
   48  C  6  X   -0.025237  -0.039925   0.022131  -0.016616   0.041233
   49  C  6  Y   -0.009065  -0.014885   0.010707  -0.001780  -0.007311
   50  C  6  Z   -0.011948  -0.020492   0.018343   0.006598  -0.052451
   51  C  6  S    0.112741   0.199070  -0.238857   0.145709  -0.133761
   52  C  6  X   -0.019820  -0.031821   0.014428  -0.008830   0.008880
   53  C  6  Y   -0.006808  -0.010433   0.007032  -0.002527   0.001734
   54  C  6  Z   -0.009872  -0.013864   0.010699  -0.001191  -0.001337
   55  C  7  S   -0.044330  -0.074065   0.062113  -0.007854  -0.058079
   56  C  7  S    0.052257   0.085634  -0.067949   0.008624   0.063597
   57  C  7  X   -0.027700  -0.042951   0.005221   0.018255  -0.052605
   58  C  7  Y   -0.000997  -0.000816  -0.012101   0.014775  -0.026849
   59  C  7  Z    0.013155   0.023095  -0.041695   0.036128  -0.054753
   60  C  7  S    0.042520   0.083150  -0.115205   0.016706   0.110827
   61  C  7  X    0.011526   0.014319   0.004898  -0.001110   0.000782
   62  C  7  Y    0.001889   0.000694   0.003078   0.000418   0.000621
   63  C  7  Z   -0.000329  -0.006911   0.008611   0.001953   0.001577
   64  C  8  S   -0.055926  -0.085953  -0.000974   0.046434  -0.129002
   65  C  8  S    0.062312   0.092530   0.002734  -0.048089   0.136027
   66  C  8  X   -0.006943  -0.001191  -0.057162   0.024023   0.003299
   67  C  8  Y    0.008633   0.014340  -0.012394   0.002495   0.007213
   68  C  8  Z    0.030018   0.044775  -0.006969  -0.004676   0.017754
   69  C  8  S    0.126199   0.212018  -0.018309  -0.129120   0.340545
   70  C  8  X    0.013695   0.001909   0.013764   0.007750   0.002582
   71  C  8  Y    0.009054   0.013636  -0.001980  -0.001383   0.006998
   72  C  8  Z    0.018426   0.040429  -0.016133  -0.009157   0.017930
[...]
   21 H             0.049230                     0.028986
   22 H            -0.051982                    -0.030423
   23 H             0.049124                     0.028943
   24 H            -0.051682                    -0.030452


          ********* ALL ELECTRONS ********

               ----- POPULATIONS IN EACH AO -----
                             MULLIKEN      LOWDIN
              1  O  1  S      1.98794     1.98240
              2  O  1  S      0.44067     0.60389
              3  O  1  X      0.50078     0.49911
              4  O  1  Y      0.81122     0.81343
              5  O  1  Z      0.73644     0.73139
              6  O  1  S      1.60472     1.05724
              7  O  1  X      0.50987     0.52704
              8  O  1  Y      0.93112     0.93164
              9  O  1  Z      0.85847     0.86257
             10  C  2  S      1.98774     1.97540
             11  C  2  S      0.39990     0.41669
             12  C  2  X      0.60814     0.58865
             13  C  2  Y      0.51020     0.50108
             14  C  2  Z      0.53445     0.51933
             15  C  2  S      0.68550     0.49574
             16  C  2  X      0.32743     0.49518
             17  C  2  Y      0.40313     0.52424
             18  C  2  Z      0.12801     0.43986
             19  C  3  S      1.98855     1.97605
             20  C  3  S      0.39461     0.40711
             21  C  3  X      0.58447     0.56932
             22  C  3  Y      0.44894     0.43521
             23  C  3  Z      0.59701     0.57955
             24  C  3  S      0.82219     0.50309
             25  C  3  X      0.27955     0.48893
             26  C  3  Y      0.56600     0.59022
             27  C  3  Z      0.42576     0.51464
             28  C  4  S      1.98853     1.97672
             29  C  4  S      0.39553     0.41374
             30  C  4  X      0.59788     0.57592
             31  C  4  Y      0.44740     0.43706
             32  C  4  Z      0.58150     0.55782
             33  C  4  S      0.89761     0.52725
             34  C  4  X      0.46508     0.52669
             35  C  4  Y      0.53956     0.57977
             36  C  4  Z      0.33273     0.50197
             37  C  5  S      1.98824     1.97686
             38  C  5  S      0.39791     0.41336
             39  C  5  X      0.61497     0.59168
             40  C  5  Y      0.43630     0.42359
             41  C  5  Z      0.57470     0.54787
             42  C  5  S      0.87666     0.52857
             43  C  5  X      0.26323     0.48417
             44  C  5  Y      0.56457     0.58666
             45  C  5  Z      0.51139     0.54494
             46  C  6  S      1.98825     1.97682
             47  C  6  S      0.39633     0.41329
             48  C  6  X      0.58735     0.56116
             49  C  6  Y      0.44203     0.43025
             50  C  6  Z      0.59614     0.57311
             51  C  6  S      0.88876     0.53128
             52  C  6  X      0.44849     0.52867
             53  C  6  Y      0.56899     0.58685
             54  C  6  Z      0.32421     0.50084
             55  C  7  S      1.98830     1.97687
             56  C  7  S      0.39853     0.41355
             57  C  7  X      0.59283     0.56619
             58  C  7  Y      0.44045     0.42728
             59  C  7  Z      0.59559     0.57145
             60  C  7  S      0.87648     0.52749
             61  C  7  X      0.44034     0.52733
             62  C  7  Y      0.54132     0.57930
             63  C  7  Z      0.35408     0.50696
             64  C  8  S      1.98839     1.97678
             65  C  8  S      0.39587     0.41453
             66  C  8  X      0.61067     0.59053
             67  C  8  Y      0.44393     0.43349
             68  C  8  Z      0.56962     0.54490
             69  C  8  S      0.87877     0.52716
             70  C  8  X      0.22929     0.47404
             71  C  8  Y      0.56985     0.58903
             72  C  8  Z      0.52842     0.54680
             73  C  9  S      1.98857     1.97614
             74  C  9  S      0.39439     0.40900
             75  C  9  X      0.56849     0.55502
             76  C  9  Y      0.58243     0.56451
             77  C  9  Z      0.47266     0.45969
             78  C  9  S      0.82501     0.50545
             79  C  9  X      0.31138     0.49407
             80  C  9  Y      0.42898     0.52518
             81  C  9  Z      0.51858     0.56361
             82  C 10  S      1.98870     1.97677
             83  C 10  S      0.39519     0.41554
             84  C 10  X      0.59091     0.56997
             85  C 10  Y      0.55882     0.53567
             86  C 10  Z      0.47489     0.46240
             87  C 10  S      0.90704     0.52806
             88  C 10  X      0.41976     0.51825
             89  C 10  Y      0.43012     0.52721
             90  C 10  Z      0.48086     0.55853
             91  C 11  S      1.98824     1.97686
             92  C 11  S      0.39776     0.41367
             93  C 11  X      0.60130     0.57858
             94  C 11  Y      0.55996     0.53542
             95  C 11  Z      0.46307     0.44761
             96  C 11  S      0.87704     0.52945
             97  C 11  X      0.28891     0.49287
             98  C 11  Y      0.49981     0.54556
             99  C 11  Z      0.55182     0.57883
            100  C 12  S      1.98827     1.97685
            101  C 12  S      0.39696     0.41358
            102  C 12  X      0.57348     0.54758
            103  C 12  Y      0.57979     0.55874
            104  C 12  Z      0.47102     0.45593
            105  C 12  S      0.88870     0.53102
            106  C 12  X      0.49077     0.54056
            107  C 12  Y      0.32035     0.50366
            108  C 12  Z      0.52977     0.57128
            109  C 13  S      1.98828     1.97687
            110  C 13  S      0.39830     0.41390
            111  C 13  X      0.58653     0.56180
            112  C 13  Y      0.56390     0.54062
            113  C 13  Z      0.47618     0.46077
            114  C 13  S      0.87664     0.52844
            115  C 13  X      0.40771     0.52089
            116  C 13  Y      0.44280     0.53210
            117  C 13  Z      0.48721     0.56138
            118  C 14  S      1.98842     1.97680
            119  C 14  S      0.39684     0.41499
            120  C 14  X      0.60374     0.58358
            121  C 14  Y      0.54950     0.52724
            122  C 14  Z      0.47160     0.45698
            123  C 14  S      0.88433     0.52726
            124  C 14  X      0.25946     0.48253
            125  C 14  Y      0.50369     0.54533
            126  C 14  Z      0.55871     0.57937
            127  H 15  S      0.47023     0.47216
            128  H 15  S      0.26212     0.41396
            129  H 16  S      0.47447     0.47471
            130  H 16  S      0.28610     0.42352
            131  H 17  S      0.47450     0.47426
            132  H 17  S      0.28724     0.42436
            133  H 18  S      0.47384     0.47445
            134  H 18  S      0.28850     0.42442
            135  H 19  S      0.47331     0.47329
            136  H 19  S      0.27613     0.42200
            137  H 20  S      0.47026     0.47229
            138  H 20  S      0.26347     0.41331
            139  H 21  S      0.47351     0.47375
            140  H 21  S      0.28508     0.42337
            141  H 22  S      0.47388     0.47376
            142  H 22  S      0.28556     0.42363
            143  H 23  S      0.47398     0.47436
            144  H 23  S      0.28589     0.42338
            145  H 24  S      0.47247     0.47216
            146  H 24  S      0.27198     0.41931

          ----- MULLIKEN ATOMIC OVERLAP POPULATIONS -----
          (OFF-DIAGONAL ELEMENTS NEED TO BE MULTIPLIED BY 2)

             1           2           3           4           5

    1    8.2876638
    2    0.2305194   4.9511913
    3   -0.0725523   0.3306944   5.4666959
    4    0.0021473  -0.0341076   0.3859004   5.2924436
    5   -0.0000074   0.0020165  -0.1075013   0.4421656   5.2352905
    6   -0.0000033   0.0000086   0.0028181  -0.1104474   0.4285182
    7    0.0002330   0.0034600  -0.1088402   0.0004980  -0.1126302
    8    0.0007226  -0.0962198   0.3619683  -0.0745980  -0.0010896
    9   -0.0795574   0.3336299  -0.0806841  -0.0098401   0.0002386
   10    0.0017886  -0.0492896  -0.0062400  -0.0126498  -0.0001440
   11   -0.0000107   0.0020191   0.0002916  -0.0004252  -0.0000017
   12   -0.0000033   0.0000186  -0.0000036  -0.0000054  -0.0000001
   13    0.0002246   0.0030685  -0.0000523   0.0000080  -0.0000000
   14    0.0040083  -0.0858023   0.0048429   0.0000095  -0.0000015
   15   -0.0000048  -0.0014595  -0.0332796   0.3956156  -0.0279454
   16    0.0000000  -0.0000428   0.0025686  -0.0339588   0.3982659
   17   -0.0000000   0.0000005  -0.0001269   0.0025162  -0.0317992
   18    0.0000002  -0.0000608   0.0028155  -0.0001009   0.0023376
   19    0.0032093  -0.0014690  -0.0429992   0.0014114  -0.0000006
   20   -0.0000113  -0.0016941   0.0004674  -0.0007444   0.0002405
   21    0.0000000  -0.0000456   0.0000025  -0.0000035   0.0000000
   22   -0.0000000   0.0000009  -0.0000000   0.0000001   0.0000000
   23    0.0000001  -0.0000592   0.0000004  -0.0000000   0.0000000
   24    0.0028698  -0.0018765   0.0002976  -0.0000131  -0.0000000

             6           7           8           9          10

    6    5.2563371
    7    0.4315937   5.2317044
    8   -0.1076396   0.4378361   5.3174924
    9   -0.0000082  -0.0000695   0.0051415   5.4314384
   10   -0.0000043   0.0000019   0.0000121   0.4068930   5.2932317
   11   -0.0000000  -0.0000000  -0.0000006  -0.1107398   0.4360148
   12    0.0000000  -0.0000000   0.0000001   0.0026842  -0.1094860
   13    0.0000000  -0.0000000  -0.0000000  -0.1135733  -0.0002011
   14    0.0000001   0.0000001  -0.0000827   0.3730985  -0.0795637
   15    0.0021578  -0.0000906   0.0018840  -0.0014945  -0.0016679
   16   -0.0313987   0.0022962  -0.0000649   0.0000029   0.0000012
   17    0.3978652  -0.0316630   0.0024876  -0.0000000   0.0000000
   18   -0.0312651   0.3971877  -0.0343947   0.0000004  -0.0000000
   19    0.0020395  -0.0235920   0.4013277   0.0003327  -0.0000099
   20   -0.0000129  -0.0000072   0.0000218  -0.0325696   0.3971733
   21   -0.0000000   0.0000000  -0.0000000   0.0025794  -0.0334900
   22   -0.0000000  -0.0000000   0.0000000  -0.0001446   0.0025176
   23   -0.0000000   0.0000000  -0.0000000   0.0028036  -0.0000969
   24    0.0000000  -0.0000000  -0.0000013  -0.0396749   0.0015052

            11          12          13          14          15

   11    5.2376143
   12    0.4335522   5.2438132
   13   -0.1123037   0.4367509   5.2343957
   14    0.0005352  -0.1078500   0.4360564   5.3002250
   15    0.0005707  -0.0000055  -0.0000132   0.0000516   0.4018307
   16   -0.0000000  -0.0000000  -0.0000000  -0.0000000  -0.0014147
   17    0.0000000  -0.0000000  -0.0000000   0.0000000  -0.0000326
   18   -0.0000000   0.0000000   0.0000000  -0.0000000   0.0000016
   19    0.0000000   0.0000000  -0.0000000  -0.0000028  -0.0000331
   20   -0.0271858   0.0020673  -0.0000728   0.0018371  -0.0023287
   21    0.3975301  -0.0311078   0.0022759  -0.0000807   0.0000093
   22   -0.0318704   0.3976260  -0.0315059   0.0024715   0.0000001
   23    0.0023020  -0.0309811   0.3971877  -0.0340664  -0.0000001
   24   -0.0000006   0.0020417  -0.0247081   0.4005952   0.0000003

            16          17          18          19          20

   16    0.4256687
   17   -0.0013294   0.4252646
   18   -0.0000352  -0.0014098   0.4286824
   19    0.0000015  -0.0000315  -0.0014162   0.4106732
   20    0.0000036   0.0000000  -0.0000000   0.0000004   0.3979238
   21   -0.0000000   0.0000000  -0.0000000  -0.0000000  -0.0013182
   22    0.0000000  -0.0000000   0.0000000   0.0000000  -0.0000317
   23   -0.0000000   0.0000000  -0.0000000  -0.0000000   0.0000015
   24   -0.0000000   0.0000000  -0.0000000   0.0000005  -0.0000321

            21          22          23          24

   21    0.4236247
   22   -0.0013593   0.4231750
   23   -0.0000344  -0.0013995   0.4256067
   24    0.0000015  -0.0000314  -0.0013915   0.4048644

          TOTAL MULLIKEN AND LOWDIN ATOMIC POPULATIONS
       ATOM         MULL.POP.    CHARGE          LOW.POP.     CHARGE
    1 O             8.381236   -0.381236         8.008705   -0.008705
    2 C             5.584501    0.415499         5.956166    0.043834
    3 C             6.107084   -0.107084         6.064121   -0.064121
    4 C             6.245821   -0.245821         6.096937   -0.096937
    5 C             6.227952   -0.227952         6.097707   -0.097707
    6 C             6.240559   -0.240559         6.102266   -0.102266
    7 C             6.227918   -0.227918         6.096412   -0.096412
    8 C             6.214803   -0.214803         6.097262   -0.097262
    9 C             6.090487   -0.090487         6.052666   -0.052666
   10 C             6.246296   -0.246296         6.092399   -0.092399
   11 C             6.227891   -0.227891         6.098851   -0.098851
   12 C             6.239111   -0.239111         6.099213   -0.099213
   13 C             6.227537   -0.227537         6.096783   -0.096783
   14 C             6.216281   -0.216281         6.094063   -0.094063
   15 H             0.732351    0.267649         0.886116    0.113884
   16 H             0.760564    0.239436         0.898227    0.101773
   17 H             0.761742    0.238258         0.898624    0.101376
   18 H             0.762343    0.237657         0.898872    0.101128
   19 H             0.749442    0.250558         0.895288    0.104712
   20 H             0.733728    0.266272         0.885599    0.114401
   21 H             0.758584    0.241416         0.897124    0.102876
   22 H             0.759448    0.240552         0.897390    0.102610
   23 H             0.759873    0.240127         0.897746    0.102254
   24 H             0.744446    0.255554         0.891462    0.108538

          -------------------------------
          BOND ORDER AND VALENCE ANALYSIS     BOND ORDER THRESHOLD=0.050
          -------------------------------

                   BOND                       BOND                       BOND
  ATOM PAIR DIST  ORDER      ATOM PAIR DIST  ORDER      ATOM PAIR DIST  ORDER
    1   2  1.255  0.888        2   3  1.443  1.119        2   9  1.475  1.068
    3   4  1.403  1.206        3   8  1.414  1.168        4   5  1.378  1.325
    4  15  1.081  0.921        5   6  1.390  1.264        5  16  1.080  0.937
    6   7  1.388  1.267        6  17  1.079  0.937        7   8  1.373  1.332
    7  18  1.082  0.937        8  19  1.079  0.932        9  10  1.398  1.233
    9  14  1.402  1.216       10  11  1.382  1.321       10  20  1.080  0.925
   11  12  1.388  1.282       11  14  2.781  0.050       11  21  1.081  0.936
   12  13  1.387  1.286       12  22  1.080  0.936       13  14  1.379  1.323
   13  23  1.081  0.936       14  24  1.079  0.931

                       TOTAL       BONDED        FREE
      ATOM            VALENCE     VALENCE     VALENCE
    1 O                 1.880       1.000       0.880
    2 C                 3.443       3.030       0.413
    3 C                 3.687       3.454       0.233
    4 C                 3.737       3.437       0.300
    5 C                 3.740       3.487       0.253
    6 C                 3.741       3.442       0.299
    7 C                 3.746       3.494       0.252
    8 C                 3.713       3.410       0.303
    9 C                 3.692       3.466       0.226
   10 C                 3.726       3.461       0.264
   11 C                 3.737       3.505       0.232
   12 C                 3.741       3.479       0.262
   13 C                 3.742       3.508       0.234
   14 C                 3.714       3.450       0.264
   15 H                 0.906       0.903       0.003
   16 H                 0.918       0.915       0.003
   17 H                 0.919       0.916       0.003
   18 H                 0.918       0.916       0.003
   19 H                 0.919       0.916       0.003
   20 H                 0.909       0.906       0.003
   21 H                 0.917       0.915       0.003
   22 H                 0.918       0.915       0.003
   23 H                 0.917       0.915       0.003
   24 H                 0.917       0.914       0.003

          -----------------------------------------
          ATOMIC SPIN DENSITY AT THE NUCLEUS (A.U.)
          -----------------------------------------
                            SPIN DENS    ALPHA DENS     BETA DENS
    1  O            8.0     0.2645154     117.19154     116.92703
    2  C            6.0     0.1375756      47.04744      46.90986
    3  C            6.0    -0.1299018      46.94402      47.07392
    4  C            6.0     0.1548380      47.08988      46.93505
    5  C            6.0    -0.1394261      46.93470      47.07412
    6  C            6.0     0.1488509      47.07761      46.92876
    7  C            6.0    -0.1413330      46.93570      47.07703
    8  C            6.0     0.1507456      47.08529      46.93455
    9  C            6.0    -0.1206853      46.95283      47.07352
   10  C            6.0     0.1501488      47.09622      46.94607
   11  C            6.0    -0.1319096      46.93856      47.07047
   12  C            6.0     0.1393703      47.07414      46.93477
   13  C            6.0    -0.1348061      46.93858      47.07339
   14  C            6.0     0.1453200      47.08479      46.93947
   15  H            1.0    -0.0156254       0.17643       0.19205
   16  H            1.0     0.0140380       0.19275       0.17871
   17  H            1.0    -0.0153311       0.17806       0.19340
   18  H            1.0     0.0139822       0.19243       0.17844
   19  H            1.0    -0.0157814       0.17745       0.19324
   20  H            1.0    -0.0145073       0.17697       0.19148
   21  H            1.0     0.0136061       0.19207       0.17846
   22  H            1.0    -0.0143410       0.17825       0.19260
   23  H            1.0     0.0135721       0.19229       0.17871
   24  H            1.0    -0.0148445       0.17751       0.19236

          ---------------------
          ELECTROSTATIC MOMENTS
          ---------------------

 POINT   1           X           Y           Z (BOHR)    CHARGE
                 0.027542   -0.218078   -0.539402        0.00 (A.U.)
         DX          DY          DZ         /D/  (DEBYE)
    -0.315404    0.670585    1.274782    1.474528
 ...... END OF PROPERTY EVALUATION ......
 STEP CPU TIME =     0.02 TOTAL CPU TIME =          6.4 (      0.1 MIN)
 TOTAL WALL CLOCK TIME=          6.4 SECONDS, CPU UTILIZATION IS    99.53%
               580000  WORDS OF DYNAMIC MEMORY USED
 EXECUTION OF GAMESS TERMINATED NORMALLY Mon Jul 14 13:45:36 2025
 DDI: 263640 bytes (0.3 MB / 0 MWords) used by master data server.

 ----------------------------------------
 CPU timing information for all processes
 ========================================
 0: 5.439 + 0.957 = 6.397
 1: 0.10 + 0.04 = 0.14
 ----------------------------------------
 ddikick.x: exited gracefully.
----- accounting info -----
Files used on the master node Mac were:
-rw-r--r--  1 zhuan08  staff     695939 Jul 14 13:45 /Users/zhuan08/Programming_Projects/oled_project/gamess/restart/molecule.dat
-rw-r--r--  1 zhuan08  staff     349921 Jul 14 13:45 /Users/zhuan08/Programming_Projects/oled_project/gamess/restart/molecule.dat.bak
-rw-r--r--  1 zhuan08  staff       1820 Jul 14 13:45 /Users/zhuan08/Programming_Projects/oled_project/gamess/restart/molecule.F05
-rw-r--r--  1 zhuan08  staff  297746464 Jul 14 13:45 /Users/zhuan08/Programming_Projects/oled_project/gamess/restart/molecule.F08
-rw-r--r--  1 zhuan08  staff    3893680 Jul 14 13:45 /Users/zhuan08/Programming_Projects/oled_project/gamess/restart/molecule.F10
Mon Jul 14 13:45:39 EDT 2025
5.514u 1.017s 0:09.55 68.2%	0+0k 0+0io 103pf+0w
