94
Properties=species:S:1:pos:R:3:forces:R:3:charge:R:1 energy=-5039.452075153274 free_energy=-5039.452075153274 dipole="-0.7123312990531392 1.7460624592656144 0.5322900129523153" pbc="F F F"
C        3.26419571       2.34080169       2.41618776       0.01797668       0.00531332      -0.00222019      -0.11632261
C        3.03828764       2.04441190       0.93606563      -0.00285560      -0.02393015       0.00331738       0.04033630
C        4.05144359       2.74991417       0.03751108      -0.00323571      -0.00491827      -0.00167106      -0.11665332
N        3.05148872       0.61268703       0.69932409      -0.00418314      -0.01792468       0.02934950      -0.00955633
C        1.97566550      -0.08444073       0.26458610      -0.00067819      -0.00981217      -0.00197810       0.00841035
Ir      -0.06835217       0.16067604      -0.18662463       0.02868662       0.01067826      -0.01517397       0.00185868
C       -2.03531827      -0.55426055      -0.50112089      -0.01714763      -0.02757117      -0.00238710      -0.01135149
N       -2.03816139      -1.84650024      -0.98061276      -0.02113855      -0.02350828      -0.00459354      -0.00570231
C       -0.83383644      -2.55283368      -0.98938759       0.00306549       0.00245980       0.01747634       0.06439594
C       -0.63710476      -3.88598902      -1.32188392       0.00172360       0.00324504       0.01666646      -0.04776154
C        0.64365548      -4.41211355      -1.15114734       0.00578593       0.00818917      -0.00708956      -0.02775254
C        0.91522823      -5.83448598      -1.55354900      -0.00727223       0.01586822       0.00515545       0.48513308
F        1.74921969      -6.46397667      -0.70913473      -0.00615581       0.00669535      -0.00516711      -0.20601660
F       -0.18836526      -6.59111096      -1.62704328       0.00171651       0.01541372       0.00059445      -0.20357326
F        1.49893388      -5.90517552      -2.76921013      -0.01283590      -0.01143696       0.02348599      -0.21106911
C        1.71367228      -3.66512731      -0.66235309      -0.00181887       0.00230795      -0.00387515      -0.04671042
C        1.47923354      -2.33029874      -0.35882344       0.00108261       0.00209917       0.00258777       0.06447164
C        0.21928864      -1.77597107      -0.52830606       0.00550098       0.01211362       0.00005216      -0.05913605
N        2.38925846      -1.39041555       0.11307063      -0.00147967       0.01255453      -0.03110177      -0.00106375
C        3.70863201      -1.51357392       0.44683014      -0.00834510       0.01941880       0.00433907       0.12525366
N        4.44496242      -2.60806732       0.40618759      -0.00245562       0.02961534       0.00971108      -0.25370403
C        5.71160776      -2.44095611       0.78337672       0.00708981       0.01183870      -0.01527250       0.04984545
C        6.24219937      -1.23031249       1.20361349      -0.00205346      -0.00555343       0.02342552      -0.04786290
C        5.45560330      -0.08257910       1.25595108       0.01374294       0.00575008      -0.00867478      -0.03962513
C        4.13446821      -0.22676986       0.84185075       0.00933488       0.00126199      -0.00639261       0.02576645
C       -3.31825690      -2.27546008      -1.18216958      -0.02909083      -0.00706164       0.02324621       0.12850678
N       -3.70851223      -3.45119064      -1.64057013      -0.02591830       0.00645941       0.00310373      -0.25768816
C       -5.02877428      -3.60918569      -1.71715677      -0.01796366       0.00234776       0.01290089       0.05206048
C       -5.95201005      -2.64321672      -1.34053080      -0.00212345       0.00415895       0.00047859      -0.04770912
C       -5.53651206      -1.40993712      -0.84817690       0.01036442       0.00310988      -0.00845759      -0.04189839
C       -4.15948670      -1.21443839      -0.77789897      -0.00818454       0.01588718       0.00448672       0.02766914
N       -3.33725020      -0.19067160      -0.36844240      -0.00908659       0.01105852       0.00084508      -0.01833937
C       -3.75072351       1.01907605       0.32050775      -0.00948529      -0.00587183      -0.01465425       0.04460750
C       -4.27150201       0.65428342       1.71140776      -0.00064619       0.00696599      -0.01211151      -0.11328211
C       -4.76049053       1.83072038      -0.48653700       0.01214244       0.01919261      -0.00933777      -0.11428807
C       -0.21147143       0.05917760       1.90827369       0.00913950      -0.00722890       0.00317875      -0.05873858
C       -0.30102551      -1.15866360       2.58423733       0.00341346      -0.01607847      -0.00632923      -0.03089850
C       -0.26017693      -1.25866089       3.96512576       0.00242997       0.00188810      -0.00326088      -0.03630189
C       -0.11355103      -0.10450191       4.71983984      -0.00649987      -0.00949017       0.00300111      -0.03286599
C       -0.03607337      -0.13274390       6.21628569       0.00901621      -0.01315218       0.00597030       0.48578789
F       -0.00418205      -1.36801211       6.72972033      -0.00560904      -0.01529431      -0.00217143      -0.20381668
F        1.06162667       0.49931350       6.67550941       0.00336028       0.00035415       0.01739349      -0.21118910
F       -1.08333035       0.49049903       6.79489046       0.00169028      -0.00515781      -0.01140786      -0.21207999
C       -0.04592664       1.12604096       4.09118895       0.01691260      -0.00336492       0.02063907      -0.04957881
C       -0.09940582       1.20474197       2.70307397      -0.01058405      -0.02390208       0.00262662       0.14211634
O       -0.00533987       2.50629715       2.24810870      -0.00216281       0.00679477       0.02082343      -0.24952345
C       -0.64751962       2.98270873       1.15805530       0.01314192       0.00879350      -0.01903468       0.20976087
C       -1.30963209       4.18412375       1.32390002       0.00267449       0.00594900      -0.01875149      -0.07367170
C       -1.98365947       4.74827002       0.24530850       0.01958122       0.02447281       0.00170901      -0.03493907
C       -1.91566122       4.09335365      -0.97693094       0.00141983      -0.00673827       0.01158774      -0.07324473
C       -1.19420277       2.91668104      -1.07695035       0.00782757      -0.00172811      -0.02815105       0.21474642
N       -0.57767556       2.32360414      -0.02459880      -0.00605539      -0.00088972      -0.02531432      -0.19564682
O       -1.17801486       2.36936530      -2.30918091       0.00576050      -0.01813571      -0.01181474      -0.24088122
C       -0.14256370       1.61477815      -2.81594281       0.01465533      -0.01855546       0.02477563       0.14669511
C        0.08403151       1.84986771      -4.17044634       0.00104271      -0.00456396       0.00620717      -0.04526364
C        1.08404266       1.16287015      -4.83316218      -0.00059749      -0.00471536      -0.00711285      -0.02857517
C        1.28583948       1.43930660      -6.29315887       0.00302538       0.00749137      -0.02383398       0.48644395
F        1.35187892       2.75813094      -6.55754893       0.01452012       0.02334003       0.00542247      -0.21071029
F        0.27097555       0.97012636      -7.04499937      -0.01682932      -0.02024273       0.00388923      -0.20958443
F        2.40397847       0.89853855      -6.79199985       0.01988200      -0.01129434       0.01640953      -0.20361238
C        1.86807974       0.24630445      -4.14632323       0.00520038       0.00096399      -0.00032967      -0.03485353
C        1.61991393       0.02074303      -2.80387098       0.00299782       0.00569010      -0.00349161      -0.02827008
C        0.59941678       0.66368644      -2.10501803      -0.01710343      -0.00852759      -0.01385287      -0.05712703
H        3.14429720       3.40453929       2.59628111      -0.01575281       0.01613928       0.01692980       0.05644155
H        4.26121524       2.04680479       2.73077326       0.01080971      -0.00149619      -0.00778772       0.05150827
H        2.53879496       1.80156477       3.01993928       0.01083047       0.01369218       0.00484334       0.05161231
H        2.03589648       2.38106077       0.65241572      -0.02014032      -0.02400535       0.02044783       0.06866531
H        5.06808969       2.46301164       0.28718706       0.01275354       0.01314004      -0.00539007       0.05384347
H        3.95599930       3.82496331       0.16031605       0.00299672       0.00670055      -0.00521805       0.05452209
H        3.86925785       2.50292362      -1.00600509      -0.02081008      -0.00936735      -0.00145466       0.04594971
H       -1.45214164      -4.49374537      -1.68022045      -0.01240302       0.01858940      -0.01565716       0.08754367
H        2.68831214      -4.10384204      -0.51905274       0.00253467       0.02313180      -0.00630527       0.08785341
H        6.31745036      -3.33373947       0.74141540       0.02030412       0.00880053       0.00865314       0.04791971
H        7.27895757      -1.17786115       1.49542063      -0.00387800      -0.00577756       0.02310034       0.04279193
H        5.86674782       0.84846525       1.60929484       0.01591660       0.01195587      -0.02912632       0.03728725
H       -5.35011256      -4.56942590      -2.09322090      -0.00419655       0.01198134      -0.00725217       0.04703885
H       -7.00765989      -2.84604242      -1.42836908       0.01306065      -0.04060085       0.00042739       0.04124684
H       -6.25655741      -0.66974797      -0.54077620       0.00810377      -0.00753065      -0.01467791       0.03504991
H       -2.84472333       1.61911944       0.43569934      -0.02020318      -0.03156986       0.03308312       0.05481321
H       -3.51648497       0.09001205       2.25758593      -0.02167342       0.01645472      -0.01556841       0.04539297
H       -4.49630720       1.55853116       2.26959576      -0.01089353       0.00812957      -0.00507611       0.05345705
H       -5.17527869       0.05320341       1.64043952       0.02160166       0.00273257       0.01281081       0.05184843
H       -4.85382010       2.82262550      -0.05080082       0.02537036      -0.01392310      -0.01113133       0.05031223
H       -4.42451396       1.93593637      -1.51591190       0.00526489       0.00433598       0.01534192       0.05026174
H       -5.74300045       1.36922178      -0.48399507       0.01170495      -0.00200276      -0.01279132       0.05309580
H       -0.39596257      -2.07429133       2.01830302      -0.00409012      -0.01198766      -0.00113908       0.05488842
H       -0.32625250      -2.22176604       4.44668821      -0.00396801       0.00648901      -0.00981200       0.06125315
H        0.06275789       2.03533788       4.66123308      -0.01204999       0.02368453       0.01006168       0.06828885
H       -1.29295927       4.65666313       2.29149411      -0.01449914      -0.04121467       0.00728415       0.06275258
H       -2.53034018       5.66886734       0.35051225       0.00154418       0.02547621       0.01121420       0.05294042
H       -2.39003961       4.47969718      -1.86393859       0.01393966      -0.00491291       0.03190270       0.06235529
H       -0.51986730       2.58492247      -4.67989619      -0.01990008      -0.01288092      -0.00539030       0.06868731
H        2.66095877      -0.28434774      -4.64898334      -0.00967407      -0.00241966      -0.02278266       0.06174836
H        2.24452723      -0.70212063      -2.30260174       0.00108760       0.00516335      -0.01938055       0.05320355
