107
Properties=species:S:1:pos:R:3:forces:R:3:charge:R:1 energy=-4782.309007330793 free_energy=-4782.309007330793 dipole="-1.1789832522650614 1.2579474833347903 -0.022372046264113675" pbc="F F F"
C        9.80332971      13.99146392      25.52370758       0.00263113      -0.00130795      -0.00587201       0.04175835
O        8.40161835      14.08107283      25.53896434       0.00473876      -0.01016228       0.00020253      -0.27781154
C        7.68657995      12.97473343      25.17129877      -0.00571278      -0.00568896      -0.00648318       0.13021474
C        8.21152971      11.71411493      24.91745848      -0.01022279      -0.01610775       0.01274383      -0.08996889
C        7.35232713      10.66370598      24.62468533      -0.00899332      -0.01191975       0.00061456       0.05227921
N        5.98298173      10.84145290      24.51517993      -0.01047855      -0.00405608      -0.00421232      -0.19095411
C        5.50333214      12.10383281      24.64681568      -0.02277474      -0.00922566       0.02219394       0.12948263
C        6.29789049      13.15611780      25.04859236      -0.01035058      -0.00950871       0.00882228      -0.08699157
N        4.15176140      12.29874602      24.40705264      -0.01813276      -0.00022834      -0.00118764      -0.01714949
C        3.57216392      13.53999714      24.15074641      -0.01053756       0.00520100      -0.00263699       0.01395094
C        4.09759496      14.67102834      23.51931199      -0.00734443       0.00398439      -0.00865509       0.12902337
O        5.35534582      14.59526157      22.98752703      -0.00383812       0.01788049      -0.00268915      -0.27409793
C        5.88045530      15.72590229      22.33973882       0.01627008      -0.00008348      -0.00441168       0.04221733
C        3.27396252      15.79065099      23.42254416       0.00214292       0.00680360      -0.00660923      -0.08224325
C        1.95066658      15.76193490      23.86101683      -0.00304692      -0.00498566      -0.01948368      -0.04042512
C        1.38262234      14.60674865      24.34763608       0.00088327      -0.00477221      -0.01021936      -0.04794630
C        2.19131643      13.47891396      24.46922184      -0.00393646      -0.00287674      -0.00128029      -0.02072884
C        1.91352049      12.12188718      24.81288744       0.00629237      -0.00978444      -0.00681805      -0.02099729
C        0.72466223      11.48499697      25.15566693       0.00351499       0.00779908      -0.00181831      -0.07452237
C        0.77187302      10.11554416      25.38217579       0.01819894       0.00008070      -0.00935842       0.13601791
O       -0.30319483       9.34131767      25.71810626       0.00201954       0.00071040      -0.00284131      -0.27383912
C       -1.58148364       9.92356952      25.71926725      -0.00793091       0.00786443      -0.00301167       0.03954752
C        1.97471413       9.41703950      25.25616460       0.01987565      -0.00455531       0.00761691      -0.07478591
C        3.18708490      10.00785759      24.88098288       0.01578080      -0.00797110       0.00240349      -0.05292041
C        3.13351809      11.39970098      24.71493795       0.00309645      -0.00977116       0.01012698       0.03769489
Ir       4.90684102       8.98610838      24.46445094      -0.03636302       0.00202411       0.00407433       0.00383939
C        4.65473697       8.70634303      22.40594213      -0.00190161      -0.00164765      -0.00947297       0.00871531
N        3.93940877       7.59493977      22.06549547       0.00497041      -0.01321147       0.00413188       0.03438524
C        3.90082378       7.46027952      20.70825186      -0.00643115      -0.00336720       0.00561814      -0.01745823
C        4.61386698       8.49658556      20.19463957      -0.00114597      -0.01710847      -0.01473472      -0.01655354
N        5.06824636       9.24419973      21.24527010       0.01356583      -0.01847627      -0.01829843       0.01808892
C        5.98721265      10.35994813      21.14944560      -0.00400057      -0.00408233       0.00013811       0.03644504
C        5.49468603      11.40117742      20.15061331       0.00557202       0.00179547       0.00430084      -0.11274244
C        7.37703609       9.83232674      20.79351975      -0.00360749       0.01391246      -0.00366969      -0.11136974
C        3.49476802       6.77194379      23.10805056       0.01941453      -0.00613260       0.00485462       0.04597090
C        2.72038826       5.61620129      23.01936202       0.00014924       0.01483371       0.00045807      -0.06122001
C        2.39194544       4.91843669      24.17966994       0.00030241       0.02234175       0.00752434       0.00775593
C        1.49757885       3.68488445      24.15264428       0.01289439       0.01381635      -0.00166762       0.02671320
C        1.06107929       3.29800195      22.73676272       0.00614021       0.00063552       0.00196207      -0.10908615
C        2.25196396       2.49345590      24.75791534      -0.00200785       0.00178443      -0.00303198      -0.10799121
C        0.23300713       3.97989331      24.97357756       0.01277567       0.00085862      -0.00328466      -0.10768033
C        2.86659741       5.36574413      25.41552267       0.01286637       0.01160655      -0.00129869      -0.05790608
C        3.63413013       6.52475029      25.48432989      -0.00045613       0.00112026      -0.00479324       0.04750797
C        3.93701616       7.24096753      24.33486604       0.00642578      -0.00068047      -0.00032440      -0.04890303
N        4.15580745       7.15269807      26.62131194      -0.01473210      -0.00151691       0.00369072       0.03816571
C        4.10637256       6.83544605      27.94813175       0.00078981      -0.00159997      -0.00555716      -0.01804922
C        4.77990203       7.81300739      28.60711209       0.00079567      -0.01430852       0.00946413      -0.01769397
N        5.23308219       8.70196218      27.67111986      -0.01762699      -0.00163215       0.01389694       0.01660627
C        5.96398122       9.92538457      27.93554045      -0.00331935      -0.00756280      -0.00192292       0.03832520
C        4.98530024      11.03688515      28.31312466       0.01105197      -0.00323679       0.00208321      -0.11327884
C        7.02725370       9.70977593      29.00737953      -0.00161231       0.01123312      -0.00639623      -0.11450765
C        4.84482327       8.31534809      26.44418620      -0.00264259      -0.01344931       0.00963914       0.01191324
N        6.86951503       8.32483708      24.30164897       0.00710751       0.01616569      -0.00568401      -0.05619283
N        7.44919298       7.15502283      24.16340037       0.00128641       0.01488376       0.00009473      -0.22453339
C        8.77115641       7.36546797      24.19916383       0.00199882      -0.00484208      -0.00538533       0.01257456
C        9.74526736       6.25645689      24.10636538      -0.00631065       0.00329893      -0.00274033       0.48143906
F        9.24520533       5.12686090      23.59004075       0.00014561      -0.00082638      -0.00236766      -0.20654393
F       10.81769389       6.57577558      23.34440835      -0.00209096       0.00238288       0.00861250      -0.22603278
F       10.26530519       5.91555235      25.31320229       0.00374826      -0.00604160      -0.01530768      -0.22758680
C        9.05996917       8.71953442      24.37474512       0.00248274      -0.01601939       0.00129953      -0.08636250
C        7.79537541       9.31497626      24.43744988       0.01364322      -0.00183848       0.00406716       0.02478588
H       10.17299556      13.71689852      24.52997281       0.01854198      -0.01323654       0.00667665       0.03760162
H       10.16771548      14.98546494      25.77981545      -0.00036399      -0.00892412       0.01241872       0.05680499
H       10.17492166      13.26947685      26.25925509      -0.01411313       0.00814413      -0.00119331       0.03708669
H        9.26807342      11.51323905      24.97460434      -0.00601740      -0.01869408      -0.00808132       0.03629929
H        5.88227710      14.12288264      25.26388692       0.00494384      -0.00355103       0.01829503       0.05164085
H        5.28833225      15.99908234      21.45903568       0.00022752      -0.00237243       0.02127094       0.03805944
H        6.88294840      15.44001309      22.02541238       0.01236449      -0.00616763      -0.00585567       0.05817672
H        5.95057788      16.58671876      23.01276782      -0.00588739      -0.01911272       0.00165563       0.04161094
H        3.64821054      16.69973664      22.98213364       0.00239974       0.00577517      -0.01339318       0.03126678
H        1.35727492      16.65960620      23.77152180       0.00397686       0.00588954      -0.00356301       0.02946118
H        0.33941893      14.57095691      24.61871701       0.00067237      -0.01794074       0.00568781       0.03010066
H       -0.18496091      12.05606693      25.24035979      -0.00700599       0.01613878       0.01323931       0.03450701
H       -1.68935110      10.66820026      26.51502665       0.01631215       0.01284856       0.00943568       0.03770404
H       -2.27619516       9.10424468      25.89858623      -0.01693552       0.00759046       0.01591051       0.05836266
H       -1.81470969      10.38889600      24.75658790       0.00155896       0.00646192      -0.01882359       0.03856102
H        1.91288116       8.35417411      25.42340514      -0.02109198       0.00057870       0.00524757       0.04945891
H        3.39437951       6.65848797      20.21192698       0.00222108       0.00780269       0.00612089       0.05601463
H        4.82142273       8.74504534      19.17502044       0.00149698      -0.00347997      -0.00719079       0.05339007
H        6.02078927      10.80778501      22.14686695       0.00154345       0.01727222      -0.00868937       0.07595001
H        6.12203689      12.28511769      20.21841611      -0.00871156       0.02102989      -0.00418238       0.05349704
H        5.54273769      11.02576099      19.13089077      -0.01232752       0.00188275      -0.00105801       0.04542060
H        4.46985541      11.68806413      20.37552745       0.00363727      -0.00161595       0.00332423       0.04754015
H        7.69202115       9.08889763      21.52209663       0.00062811       0.01428673      -0.00396124       0.05618567
H        8.09572222      10.64649207      20.79782684       0.00844926       0.00826222       0.00854683       0.05061434
H        7.37694296       9.37298296      19.80710906      -0.00551653      -0.00012793      -0.00252262       0.04491278
H        2.37898147       5.28148103      22.05477955      -0.00125694      -0.00033440       0.01036031       0.04184949
H        0.48607857       4.09550500      22.27219070       0.00020177       0.00230454       0.00117501       0.03572211
H        0.42907984       2.41339600      22.78186712      -0.00263634      -0.00258269       0.00545703       0.03717801
H        1.92023684       3.06297035      22.11349167       0.00979491      -0.00016086      -0.00316397       0.03725869
H        2.50159429       2.66691954      25.80047375       0.00063456      -0.00012904      -0.00032424       0.03665117
H        3.17612278       2.31933857      24.21177262       0.00145851      -0.00262536      -0.00206532       0.03867175
H        1.64035413       1.59575064      24.70015829      -0.00075458      -0.00983526       0.00631844       0.03779124
H       -0.44287991       3.12756272      24.94636286       0.01071495      -0.00173056      -0.00468539       0.03775714
H       -0.28342843       4.84588659      24.56509169      -0.00175131      -0.00274823       0.00189087       0.03661540
H        0.47509196       4.18972381      26.01132910      -0.00230343      -0.00218482       0.00385137       0.03664669
H        2.63268979       4.82370384      26.31793920      -0.00043735       0.00484170      -0.00761999       0.03571031
H        3.60994849       5.96541280      28.32541286       0.02124673       0.00408979      -0.00752758       0.05709634
H        4.96725828       7.92664970      29.65389257      -0.00033076       0.00064638       0.00399314       0.05568198
H        6.45579927      10.19194189      26.99468930       0.00240398       0.00554244       0.00684131       0.06936761
H        5.51888092      11.97786389      28.41113135      -0.01103011       0.01461623      -0.00169620       0.05317369
H        4.22576707      11.14323950      27.54101764       0.01317761       0.00120724       0.00147959       0.05178455
H        4.49443255      10.81166253      29.25777859      -0.00743453      -0.00352022      -0.00388399       0.04672677
H        7.68792453      10.57130234      29.03704499       0.01183658       0.00814275       0.00090309       0.05297975
H        6.57988903       9.59416636      29.99194662       0.00133087      -0.01066532      -0.00405316       0.04770760
H        7.62093670       8.82690918      28.78095465       0.00016636       0.01232084      -0.00409775       0.05313160
H       10.02966657       9.17069669      24.43197901      -0.03205760       0.01163293       0.00042328       0.01192612
