107
Properties=species:S:1:pos:R:3:forces:R:3:charge:R:1 energy=-4784.656531850717 free_energy=-4784.656531850717 dipole="-1.1423019811822799 1.8593374671376468 0.16342330699787452" pbc="F F F"
C        7.93273872      15.24906503      23.19859691      -0.00592631       0.02490730      -0.00009060       0.03632216
O        8.44583491      13.95422823      23.39974061      -0.00138262       0.01947360      -0.01458150      -0.26096698
C        7.60683503      12.98441211      23.83205332       0.00211723       0.00595292       0.01722642       0.15516984
C        8.17371502      11.72680424      24.03504509      -0.01842829      -0.01908326      -0.01382090      -0.08656196
C        7.34264915      10.66155710      24.34412417      -0.00993418      -0.01999601       0.00602234       0.08124258
N        6.02394266      10.82903845      24.59959928      -0.01416116      -0.03739152       0.00804959      -0.15010388
C        5.51250308      12.06571700      24.56491874      -0.01143984      -0.02483718       0.02436913       0.14226530
C        6.24816549      13.14667413      24.06918437      -0.01417790      -0.01113925       0.01365374      -0.09606900
N        4.21791363      12.26120673      25.00009125      -0.01150627      -0.03636535       0.00643555      -0.03256514
C        3.69799488      13.48849123      25.40942955      -0.00544758      -0.02760832      -0.00595309       0.02055832
C        4.32244236      14.61869452      25.95844292      -0.00621333      -0.04084148      -0.02102057       0.12215841
O        5.67602244      14.57164987      26.19178155      -0.00691539       0.02307537       0.00636203      -0.28556329
C        6.27809032      15.65210993      26.85781336       0.00151416       0.01809612       0.01018696       0.04446150
C        3.52028027      15.70669411      26.27627824       0.03668234      -0.00632881       0.01329211      -0.07619450
C        2.13619146      15.66673439      26.13662967       0.02497548       0.00410280      -0.00042780      -0.04278465
C        1.50379827      14.51393685      25.73153522       0.00237919       0.02497331       0.01627013      -0.04634618
C        2.28983648      13.42085221      25.39276922      -0.01050790       0.02104378       0.00790564      -0.01326223
C        1.94285262      12.06993716      25.06137256       0.01994797       0.01233648       0.00848900      -0.02002305
C        0.69423513      11.45829529      25.01326452       0.04875258       0.00089668      -0.00371212      -0.08087926
C        0.68319456      10.09878421      24.77552597       0.00597998      -0.00260646      -0.02161098       0.13097924
O       -0.44242319       9.31808727      24.72050106       0.00153013      -0.03688851      -0.01139286      -0.28179252
C       -1.68273846       9.92079487      24.98360969       0.02204994       0.00110668      -0.00530160       0.04168168
C        1.88611345       9.40265342      24.59288506      -0.00379266      -0.00590253      -0.02250367      -0.06792446
C        3.15521450       9.97400549      24.62996475      -0.01685270       0.01002553       0.01270319      -0.05768125
C        3.14008995      11.35791010      24.86594551       0.00155007      -0.01284392       0.00896794       0.03024424
Ir       4.93105897       8.94884086      24.50355921      -0.00225620       0.00342860       0.00432719      -0.05771340
C        4.70551054       8.71856975      22.43608487      -0.00035205      -0.01515753      -0.02612688      -0.00246337
N        3.98259759       7.60979857      22.10365648      -0.01945255      -0.01225103      -0.02266814       0.03559792
C        3.89204383       7.47975803      20.74949898       0.00030330      -0.00247106      -0.02036430      -0.01664533
C        4.58450083       8.51343595      20.21440061       0.00603893       0.00154181      -0.00655080      -0.01831475
N        5.07173638       9.25736541      21.25898422      -0.00744929       0.01143617      -0.02469294       0.00863466
C        5.98606720      10.36887178      21.12222033       0.00689120       0.01087000      -0.00510962       0.03990464
C        7.35771206       9.83409162      20.71002099       0.00180517       0.01709357       0.00085969      -0.11217298
C        5.44528037      11.41927525      20.15714721       0.00371134       0.00377721       0.00434986      -0.11283016
C        3.53425732       6.77753910      23.13710103      -0.00594120       0.00468793       0.00002153       0.05030028
C        2.74625475       5.64200034      23.03594352      -0.01241256       0.01209415       0.00137802      -0.05713585
C        2.37376062       4.96108817      24.19251309       0.01505575       0.00430495      -0.00055369       0.00407969
C        1.48324005       3.72878903      24.14633251       0.01059788       0.00759146       0.00140160       0.02664916
C        1.08161627       3.34062800      22.72114657      -0.00266370      -0.00320600       0.00870554      -0.10906165
C        0.20012318       4.01865268      24.93757538       0.00448862      -0.00976003      -0.00281660      -0.10789615
C        2.24242192       2.54843408      24.76613873      -0.00753968      -0.00408815       0.00202231      -0.10795633
C        2.80928225       5.41863738      25.44007119      -0.00109442       0.00654200      -0.00525698      -0.05212474
C        3.59794729       6.55142815      25.51872997      -0.00133184       0.00393082       0.00032513       0.05182275
C        3.96170294       7.24281771      24.37012309       0.00865737      -0.00402033      -0.00297044      -0.04505068
N        4.09863954       7.19320075      26.65980220      -0.01499747      -0.01376750       0.01740213       0.03488340
C        4.09152454       6.84838134      27.97937411      -0.01251701       0.00496688       0.01768095      -0.01642437
C        4.76396895       7.82360246      28.63870825      -0.00100711      -0.00268961       0.00399626      -0.01852056
N        5.16891040       8.74023616      27.70208466       0.00636862      -0.00651588       0.02557483       0.01456785
C        5.95935179       9.92172102      27.96502205       0.00354645       0.00754794       0.00578143       0.03622656
C        7.28826834       9.52521592      28.60426315      -0.00209461       0.01600577      -0.00423958      -0.11244233
C        5.15872621      10.91769000      28.79974169       0.00586545       0.00390994      -0.00116387      -0.11248502
C        4.76349508       8.37068817      26.47823303       0.00421205      -0.01835635       0.02782831       0.00722792
N        6.90579839       8.28594818      24.41327178       0.00863876       0.01264664       0.00428756      -0.04764266
N        7.51155806       7.12939179      24.35509296       0.00533985       0.01785525       0.00532794      -0.21939623
C        8.83116401       7.36944138      24.27343315      -0.00333979       0.01550792      -0.00073167       0.01118682
C        9.83646064       6.29067748      24.14821457      -0.02983060       0.01984290       0.00415115       0.48166853
F        9.41917322       5.09007578      24.56705097      -0.00328759       0.00558116       0.00275770      -0.20543808
F       10.96389781       6.56392547      24.84571479      -0.01177462      -0.01853472      -0.02818713      -0.22534001
F       10.25008195       6.11536850      22.86642881       0.01117724      -0.01313189       0.03704962      -0.22748784
C        9.08585724       8.73956515      24.26616270      -0.01122722       0.00007011       0.00131038      -0.08061355
C        7.80927777       9.29881145      24.36117885       0.00621277       0.00230323      -0.00615511       0.02486665
H        7.46550632      15.63800958      24.10680083      -0.01417580      -0.00325559       0.00871140       0.04688814
H        7.20856338      15.27157432      22.37792764      -0.00823069      -0.00629704       0.00233198       0.04046090
H        8.78886174      15.86962300      22.93973424       0.00814146       0.00113905      -0.01348352       0.06314370
H        9.22969936      11.58478654      23.88581129      -0.01646842      -0.00977683      -0.02528879       0.05645368
H        5.73966171      14.07420321      23.88171931       0.02939562       0.02599099      -0.01917912       0.04881250
H        7.32614821      15.37682032      26.97209442      -0.00325197      -0.00117445       0.00756383       0.05742275
H        5.83541797      15.81567730      27.84549854       0.00203672      -0.02160954       0.00932490       0.04003165
H        6.20943638      16.58160526      26.28110409       0.00845785      -0.00756141      -0.01868361       0.03332402
H        3.96396785      16.60565366      26.67114994       0.02641657       0.01913199       0.00742256       0.03190313
H        1.56242984      16.54421251      26.39269444      -0.00181003       0.00586394       0.01262794       0.03067403
H        0.42871991      14.45202396      25.69450297      -0.02437390      -0.01353066      -0.01008405       0.03434258
H       -0.19754257      12.04092203      25.18209875       0.02106387      -0.02543361      -0.01422657       0.02867436
H       -1.93822833      10.66672878      24.22307240      -0.00608346       0.01457482       0.00213389       0.03456248
H       -2.41599095       9.11491118      24.95790695       0.00621375       0.02545835      -0.00375809       0.05508687
H       -1.69690328      10.39250162      25.97197688      -0.02134372       0.00341413       0.00408541       0.03515730
H        1.77373326       8.34144956      24.43497733      -0.01561548      -0.00361157      -0.00770387       0.05009169
H        3.35715210       6.68739766      20.26722215       0.02457137      -0.00385673       0.02265352       0.05254288
H        4.76009060       8.76114581      19.18766711       0.00624217       0.01118631       0.03569139       0.04785398
H        6.06596806      10.82111090      22.11363995       0.00055835      -0.01180465      -0.00062109       0.05925623
H        7.31891521       9.38072135      19.72194709      -0.01103380       0.02670931      -0.00955296       0.04707272
H        7.68418701       9.07846530      21.42109340       0.01682589       0.01301615       0.00185839       0.05417585
H        8.08880559      10.63691142      20.70101519       0.00510303       0.02053281      -0.00860343       0.04913158
H        4.45234214      11.73360603      20.47098387      -0.00514961       0.01376513      -0.00611574       0.04661651
H        6.10347553      12.28369009      20.16297183      -0.00644126       0.01402049      -0.01610190       0.04768268
H        5.38566881      11.04189490      19.13944734       0.02813554      -0.01989714       0.00610437       0.04761739
H        2.41154997       5.30784060      22.06855079       0.01462893      -0.00337815       0.00251423       0.04252652
H        1.95657323       3.11878604      22.11492745      -0.00400391      -0.01221093      -0.00025534       0.03682009
H        0.45959893       2.44875474      22.75224685      -0.00856032      -0.01276850      -0.00555553       0.03680789
H        0.50652974       4.13394047      22.24957971      -0.00176335      -0.00338146      -0.01066533       0.03618544
H        0.41530306       4.22908889      25.98096961      -0.00441872      -0.00920912       0.00582638       0.03608666
H       -0.30729567       4.88362377      24.51583241      -0.00831268      -0.00340799       0.00694602       0.03775599
H       -0.47160326       3.16453088      24.89272096      -0.00993288      -0.01486143       0.00168163       0.03706432
H        3.17283981       2.38386520      24.22742419      -0.00202485      -0.01988572       0.00086057       0.03821884
H        2.48454511       2.73612225      25.80779197      -0.00462222      -0.01322658       0.01192658       0.03648443
H        1.64306967       1.64267758      24.71224651      -0.00976740      -0.01707330       0.00197982       0.03716670
H        2.51343658       4.90050610      26.33911507       0.02297144      -0.00124438      -0.00338497       0.03590325
H        3.63192309       5.95628774      28.35421634       0.00159067       0.02635507      -0.02486392       0.05240749
H        4.97490114       7.92279220      29.68431962       0.00767651       0.01174142      -0.04504348       0.04876930
H        6.15823825      10.37021306      26.98641246      -0.00462380      -0.00736120       0.00121114       0.07250677
H        7.92906831      10.39691182      28.69978966       0.00603838       0.01142551       0.00892562       0.04912962
H        7.79095439       8.79378442      27.97500811       0.01473026       0.01003774       0.00477999       0.05227081
H        7.14411475       9.09084652      29.59100637      -0.02271522       0.02598458       0.00102044       0.04564272
H        5.72629407      11.83604458      28.91897380      -0.00689051       0.01339108       0.01671420       0.04967675
H        4.22540819      11.14886927      28.29068620      -0.00401189       0.02175523       0.00734687       0.04947153
H        4.92775645      10.51800231      29.78464726       0.03072151      -0.01312133       0.00405995       0.04475972
H       10.03986940       9.22498180      24.21988663      -0.04502818      -0.01029907      -0.01160123       0.01653980
