102
Properties=species:S:1:pos:R:3:forces:R:3:charge:R:1 energy=-4932.88795635987 free_energy=-4932.88795635987 dipole="1.509784950693424 0.943877005405904 -0.1827074678935536" pbc="F F F"
C        7.87500300       9.51870886      25.49582848      -0.00833175       0.01007335       0.00620507       0.08860264
O        6.59926442       9.02767908      25.44016519      -0.00580017      -0.01157171       0.01940974      -0.43515409
C        4.07355203       9.73006624      27.66136720      -0.00263228       0.01891197      -0.04513631      -0.01439252
C        3.65160085       9.97293787      26.32617334       0.00583026       0.00031816       0.00678717      -0.03375015
C        4.35092931      10.85741908      25.52881410      -0.01139557       0.01910311       0.00288884      -0.03345416
C        5.05781865      11.85409904      26.21263654       0.00519799       0.00189376      -0.00242383       0.06161482
C        5.08088139      11.89316587      27.63424278       0.00850955       0.00800108       0.00569717      -0.01594470
C        4.72148208      10.76434414      28.35028381       0.01602861       0.00139563      -0.00875604      -0.04022539
C        5.83645834      13.05763238      27.99076729       0.02690820      -0.00125405      -0.00110837      -0.01583005
C        6.17949150      13.59451430      29.22631776      -0.00109070      -0.00337408       0.01539613      -0.04668864
C        6.96181824      14.72552989      29.25098017      -0.00176973      -0.00406565      -0.00451122      -0.04380464
C        7.39444827      15.32170314      28.06836945       0.01083148      -0.00444396      -0.01141818      -0.07508135
C        7.06821361      14.80764595      26.82206815       0.01948481      -0.00851500      -0.00161036       0.12680521
O        7.48677214      15.36119067      25.64134876       0.00298738       0.00838034       0.00762279      -0.27542809
C        8.21020215      16.56477613      25.68121299       0.01017648      -0.00442742       0.01010660       0.04279334
C        6.27113864      13.65245397      26.78044538       0.00440175       0.00148466      -0.00237632       0.02756929
N        5.80979515      12.89492426      25.71952924       0.01102280      -0.01276898      -0.00068691      -0.01162347
C        6.10388078      12.94859532      24.36107259       0.00208549       0.00073590      -0.00366742       0.11024652
C        6.23902561      14.01628098      23.50836265       0.00355210       0.00607258       0.01682211      -0.09450808
C        6.60277059      14.00502871      20.93395562      -0.01005108      -0.00841399       0.00254490       0.00270932
N        6.88063537      15.27678750      20.58386307      -0.00399951      -0.00878341       0.00299247      -0.03220063
C        6.90042915      15.67932229      19.20445366      -0.01565562       0.00026673       0.01262809      -0.05341209
C        7.13089152      16.30524198      21.55639376      -0.00271588       0.00532319       0.00620652      -0.05589553
C        6.40168801      13.46915454      22.19253015      -0.02113273      -0.00249043       0.00761651      -0.03724178
C        6.34409722      12.05993947      22.39424903       0.02332237      -0.01446447       0.02048861       0.05816276
N        6.19358400      11.75853032      23.69303287      -0.03099593      -0.00973602       0.00010378      -0.19858799
Ir       5.23400770       9.69508958      24.07454029      -0.00610726      -0.02519708       0.03492697       0.13984871
C        5.34056199       8.08078350      21.49658038       0.00520927       0.00626597       0.00131153       0.18839160
N        4.25458831       7.34248077      21.89531531       0.02208465      -0.01236779       0.00467511      -0.01847039
C        3.65209656       6.85719162      20.74216279       0.01283053      -0.00600443      -0.01213198      -0.01833086
C        4.36839142       7.25915429      19.68049065       0.01249759      -0.01786434      -0.00754951      -0.01209730
N        5.43043140       8.00886047      20.13220647      -0.00894637       0.00660733      -0.00575283      -0.04989162
C        6.54004798       8.47010065      19.32188785       0.00065419      -0.01569340       0.00740921       0.04305606
C        7.21060659       7.28109133      18.63369064       0.00187811      -0.00663579      -0.00710117      -0.11530197
C        6.07034932       9.51851249      18.31655307       0.00143280      -0.00158746       0.00025187      -0.11357301
C        3.82331186       7.09166669      23.21346047      -0.00100050      -0.01139477       0.02301584       0.06663636
C        2.91346131       6.04252261      23.33270973      -0.00981008      -0.00465648       0.01997370      -0.04868796
C        2.43019465       5.67189259      24.57211187      -0.00944761      -0.03232979       0.00683400      -0.03708743
C        1.40037670       4.59548485      24.71632914       0.01039527      -0.00254613       0.01947998       0.48506400
F        0.82021407       4.24577897      23.55913010       0.01661131       0.02474472       0.03483921      -0.20653203
F        1.91838683       3.45234935      25.22678460       0.00827964       0.02434095      -0.00386520      -0.21899080
F        0.40669815       4.93915316      25.55642146       0.01603000      -0.00798876      -0.01925852      -0.20966180
C        2.98083493       6.24840449      25.70144730      -0.00770790      -0.02208810      -0.01612320      -0.04754137
C        3.93252833       7.25970057      25.58413846      -0.01119382      -0.01810392      -0.00002303       0.06611839
C        4.30273187       7.81933021      24.33871675      -0.00249911       0.00529293       0.03101504      -0.05189793
N        4.54611259       7.47804932      26.88048854       0.00403518       0.01086123      -0.00982804       0.01166410
C        5.14124452       6.36310119      27.42031393      -0.01162554      -0.00523995      -0.02659425      -0.00216005
C        5.20736050       6.51057830      28.75737958      -0.00103192      -0.02206029      -0.00892379      -0.01844211
N        4.64884905       7.72487644      29.07876352      -0.00142007      -0.00483000      -0.00229834      -0.01513182
C        4.25055703       8.01379417      30.45042561       0.01023409      -0.00049143       0.01267396       0.04323127
C        5.40117758       8.61510107      31.25773025       0.00692033       0.00357514      -0.00482209      -0.11639251
C        2.97943064       8.85149545      30.51005076      -0.00568561       0.00250183       0.01807684      -0.12290139
C        4.28394565       8.34376799      27.91784414      -0.00904876       0.00407444       0.00709953       0.10050021
N        6.82373402       9.85192008      21.89904955       0.01002467      -0.00578848       0.00029654      -0.18566379
N        6.13299201       8.73618802      22.29310744       0.00808312       0.00221483       0.00037303      -0.12772720
C        3.94829873      10.29309587      22.54636846      -0.00846896       0.02045361       0.00734156      -0.13327067
C        2.46140990      10.21050993      22.46804421      -0.01065948       0.02585101      -0.02357607       0.48039036
F        1.86029498      11.36217677      22.08495631       0.00498913       0.00871002      -0.00995809      -0.22466493
F        2.03917633       9.28446105      21.55740464      -0.00525542       0.01611214      -0.00847195      -0.23996709
F        1.85986546       9.85712751      23.61824095       0.00298288      -0.00967029      -0.01059472      -0.21633431
C        4.58538398      10.79233417      21.47329646      -0.01989841      -0.01359334       0.00537675      -0.04490035
C        6.07095691      10.87796097      21.59536414      -0.00782497       0.00426266      -0.01562828       0.05696057
H        8.45855516       9.24491102      24.60243891      -0.00661636      -0.00207615      -0.01149209       0.02373431
H        7.91661178      10.61586018      25.58703998      -0.02850361       0.01733675      -0.00652805       0.00577514
H        8.38245518       9.08859449      26.37677128       0.02506443      -0.01002651      -0.01832178       0.00250755
H        2.91135681       9.31848273      25.89772397      -0.01006897      -0.01886003      -0.01394363       0.06772308
H        5.06995069      10.65185097      29.36321294      -0.01086118       0.01026282      -0.02608479       0.03645360
H        5.84403678      13.12960797      30.14045514      -0.01784368      -0.00844148      -0.00934048       0.02846465
H        7.25839007      15.16198259      30.19336840      -0.01420883       0.01233017      -0.01672136       0.02861140
H        8.01299518      16.20188894      28.13902876      -0.00808350       0.00730585       0.01084923       0.03187603
H        9.17676492      16.44559676      26.18275308      -0.01059510      -0.01976756      -0.00697892       0.03866087
H        8.38213668      16.84028141      24.64038373       0.00369424      -0.00770070       0.01913242       0.05290532
H        7.64408533      17.36275554      26.17477746      -0.00415644      -0.01613905      -0.00782101       0.03811230
H        6.15052732      15.04440620      23.78300824      -0.00134792       0.01198422       0.00266931       0.03101199
H        7.89052986      16.05419850      18.92777120       0.01424962       0.01917324      -0.00182981       0.05085728
H        6.65545972      14.83643143      18.56279787       0.00590899      -0.00459884      -0.00454161       0.06109706
H        6.17022726      16.47390159      19.02514676      -0.00750697       0.01395442       0.00922063       0.05417654
H        7.60161171      15.86143708      22.43086713       0.00860746       0.01021003       0.00640923       0.07828411
H        6.20679756      16.80593618      21.86546687       0.00541037      -0.01626569      -0.01066043       0.05303355
H        7.80263726      17.05089439      21.12934339       0.00054882       0.00482924      -0.02098144       0.05101122
H        6.56409278      13.30813872      20.10648567      -0.00107344       0.01067476       0.00962274       0.03872260
H        2.73720820       6.30936772      20.73890093      -0.01928755       0.00231546       0.00366411       0.07173721
H        4.20703557       7.06961776      18.64021581       0.00341000       0.01824490       0.00725674       0.06127704
H        7.25493333       8.93190751      20.01263789       0.01291696      -0.00098555      -0.00015809       0.07350439
H        7.41848585       6.49826971      19.35936710       0.02390272       0.00068259      -0.00025789       0.04715961
H        6.57495807       6.86992402      17.85246305      -0.00182732       0.01187396       0.00900013       0.04693571
H        8.14970623       7.59556325      18.18583621      -0.02410968       0.00104568      -0.00202423       0.05199608
H        5.64491779      10.37117274      18.83933990       0.00063034      -0.00504551      -0.00217138       0.04913292
H        6.91465384       9.85883690      17.72395339       0.00925116       0.01192532      -0.00889482       0.04964497
H        5.31802135       9.10806896      17.64717904      -0.00195998      -0.00927216       0.00768877       0.04734906
H        2.56884665       5.49375945      22.47415196       0.00050307       0.01683594      -0.00738253       0.06268937
H        2.67587471       5.89955770      26.67884559       0.00051604       0.01511003      -0.02271258       0.04546307
H        5.46295027       5.55346869      26.79897511       0.00577631      -0.00905056       0.00871703       0.06971521
H        5.59485889       5.85303359      29.50785541       0.00081506       0.00129257       0.00547991       0.05945678
H        4.02319394       7.03436210      30.89514366      -0.00570789      -0.00383661      -0.02619832       0.05177096
H        5.65282299       9.61188509      30.90987404       0.02411276      -0.00992071       0.01410341       0.05539216
H        6.28581007       7.98760044      31.17257529      -0.00384145       0.02531046      -0.00001202       0.04937338
H        5.11896165       8.67599896      32.30590969      -0.00117751       0.00477158      -0.01862538       0.05334615
H        2.19939501       8.39854037      29.90223627       0.00939634       0.00326749       0.00011417       0.05003800
H        2.63298480       8.89342992      31.53872250      -0.01580419       0.01435472       0.02331352       0.05568301
H        3.14421172       9.86336895      30.15733419      -0.00361106       0.00386047      -0.00377097       0.06584577
H        4.09828671      11.21816002      20.60143663      -0.00883134      -0.01435364       0.00592108       0.01794906
