102
Properties=species:S:1:pos:R:3:forces:R:3:charge:R:1 energy=-4932.887956351906 free_energy=-4932.887956351906 dipole="1.5097849990467989 0.943876949950759 -0.18270756005028246" pbc="F F F"
C        7.87500299       9.51870884      25.49582839      -0.00833134       0.01007282       0.00620498       0.08860265
O        6.59926443       9.02767904      25.44016520      -0.00580092      -0.01157217       0.01940956      -0.43515409
C        4.07355199       9.73006622      27.66136717      -0.00263242       0.01891179      -0.04513683      -0.01439251
C        3.65160084       9.97293790      26.32617332       0.00583062       0.00031850       0.00678577      -0.03375015
C        4.35092930      10.85741919      25.52881411      -0.01139630       0.01910168       0.00288917      -0.03345419
C        5.05781866      11.85409911      26.21263657       0.00519773       0.00189302      -0.00242474       0.06161483
C        5.08088139      11.89316589      27.63424278       0.00850917       0.00800034       0.00569813      -0.01594469
C        4.72148199      10.76434414      28.35028377       0.01602986       0.00139564      -0.00875437      -0.04022539
C        5.83645840      13.05763234      27.99076732       0.02690773      -0.00125406      -0.00110915      -0.01583005
C        6.17949159      13.59451425      29.22631776      -0.00109082      -0.00337400       0.01539746      -0.04668864
C        6.96181835      14.72552981      29.25098016      -0.00176953      -0.00406532      -0.00451162      -0.04380464
C        7.39444835      15.32170309      28.06836945       0.01083126      -0.00444390      -0.01141853      -0.07508135
C        7.06821361      14.80764595      26.82206815       0.01948518      -0.00851505      -0.00161015       0.12680520
O        7.48677208      15.36119066      25.64134871       0.00298700       0.00838004       0.00762329      -0.27542809
C        8.21020198      16.56477616      25.68121289       0.01017692      -0.00442699       0.01010623       0.04279334
C        6.27113865      13.65245398      26.78044541       0.00440221       0.00148456      -0.00237603       0.02756929
N        5.80979522      12.89492428      25.71952927       0.01102215      -0.01276886      -0.00068759      -0.01162347
C        6.10388081      12.94859537      24.36107262       0.00208559       0.00073512      -0.00366731       0.11024653
C        6.23902559      14.01628101      23.50836267       0.00355211       0.00607375       0.01682150      -0.09450808
C        6.60277061      14.00502869      20.93395562      -0.01005157      -0.00841452       0.00254490       0.00270931
N        6.88063530      15.27678749      20.58386303      -0.00399911      -0.00878412       0.00299239      -0.03220062
C        6.90042923      15.67932218      19.20445361      -0.01565560       0.00026759       0.01262772      -0.05341209
C        7.13089159      16.30524193      21.55639373      -0.00271601       0.00532328       0.00620626      -0.05589554
C        6.40168802      13.46915456      22.19253015      -0.02113297      -0.00249018       0.00761688      -0.03724178
C        6.34409725      12.05993949      22.39424905       0.02332273      -0.01446396       0.02048944       0.05816278
N        6.19358410      11.75853037      23.69303290      -0.03099611      -0.00973666       0.00010360      -0.19858801
Ir       5.23400765       9.69508956      24.07454032      -0.00610678      -0.02519683       0.03492702       0.13984866
C        5.34056192       8.08078355      21.49658036       0.00520856       0.00626577       0.00131175       0.18839159
N        4.25458819       7.34248088      21.89531529       0.02208414      -0.01236921       0.00467524      -0.01847039
C        3.65209653       6.85719157      20.74216279       0.01283084      -0.00600399      -0.01213265      -0.01833086
C        4.36839142       7.25915417      19.68049065       0.01249793      -0.01786400      -0.00754931      -0.01209730
N        5.43043138       8.00886042      20.13220647      -0.00894679       0.00660704      -0.00575233      -0.04989161
C        6.54004796       8.47010069      19.32188793       0.00065454      -0.01569357       0.00740882       0.04305605
C        7.21060668       7.28109144      18.63369068       0.00187820      -0.00663558      -0.00710100      -0.11530197
C        6.07034926       9.51851258      18.31655323       0.00143253      -0.00158798       0.00025243      -0.11357302
C        3.82331175       7.09166667      23.21346044      -0.00100034      -0.01139412       0.02301599       0.06663636
C        2.91346118       6.04252260      23.33270972      -0.00980954      -0.00465697       0.01997231      -0.04868796
C        2.43019463       5.67189252      24.57211187      -0.00944820      -0.03233003       0.00683411      -0.03708742
C        1.40037676       4.59548469      24.71632912       0.01039487      -0.00254615       0.01948014       0.48506399
F        0.82021413       4.24577872      23.55913012       0.01661165       0.02474491       0.03483878      -0.20653203
F        1.91838696       3.45234924      25.22678460       0.00828011       0.02434070      -0.00386511      -0.21899080
F        0.40669816       4.93915289      25.55642141       0.01602983      -0.00798830      -0.01925807      -0.20966180
C        2.98083488       6.24840445      25.70144731      -0.00770776      -0.02208845      -0.01612402      -0.04754137
C        3.93252827       7.25970052      25.58413845      -0.01119385      -0.01810359      -0.00002300       0.06611838
C        4.30273178       7.81933016      24.33871673      -0.00249897       0.00529320       0.03101519      -0.05189791
N        4.54611254       7.47804929      26.88048852       0.00403510       0.01086129      -0.00982804       0.01166411
C        5.14124449       6.36310118      27.42031390      -0.01162516      -0.00524016      -0.02659409      -0.00216005
C        5.20736054       6.51057834      28.75737955      -0.00103200      -0.02206026      -0.00892357      -0.01844211
N        4.64884909       7.72487648      29.07876351      -0.00142031      -0.00483088      -0.00229832      -0.01513183
C        4.25055702       8.01379417      30.45042561       0.01023350      -0.00049108       0.01267291       0.04323128
C        5.40117758       8.61510104      31.25773024       0.00691998       0.00357473      -0.00482199      -0.11639251
C        2.97943066       8.85149551      30.51005075      -0.00568595       0.00250228       0.01807653      -0.12290139
C        4.28394561       8.34376796      27.91784412      -0.00904888       0.00407563       0.00709951       0.10050021
N        6.82373401       9.85192006      21.89904956       0.01002393      -0.00578711       0.00029613      -0.18566379
N        6.13299187       8.73618812      22.29310744       0.00808327       0.00221374       0.00037354      -0.12772714
C        3.94829874      10.29309598      22.54636852      -0.00846928       0.02045322       0.00734149      -0.13327067
C        2.46140991      10.21051003      22.46804427      -0.01065954       0.02585169      -0.02357626       0.48039035
F        1.86029500      11.36217689      22.08495635       0.00498919       0.00870952      -0.00995792      -0.22466494
F        2.03917634       9.28446114      21.55740472      -0.00525539       0.01611226      -0.00847176      -0.23996708
F        1.85986549       9.85712765      23.61824103       0.00298277      -0.00967028      -0.01059491      -0.21633431
C        4.58538401      10.79233433      21.47329654      -0.01989863      -0.01359358       0.00537655      -0.04490034
C        6.07095693      10.87796101      21.59536416      -0.00782419       0.00426255      -0.01562808       0.05696056
H        8.45855516       9.24491090      24.60243885      -0.00661665      -0.00207565      -0.01149247       0.02373430
H        7.91661170      10.61586013      25.58703987      -0.02850317       0.01733740      -0.00652830       0.00577514
H        8.38245528       9.08859451      26.37677113       0.02506430      -0.01002669      -0.01832097       0.00250754
H        2.91135686       9.31848273      25.89772387      -0.01006878      -0.01885953      -0.01394328       0.06772308
H        5.06995061      10.65185089      29.36321293      -0.01086146       0.01026330      -0.02608590       0.03645359
H        5.84403689      13.12960798      30.14045519      -0.01784369      -0.00844167      -0.00934081       0.02846465
H        7.25839017      15.16198246      30.19336840      -0.01420849       0.01233054      -0.01672092       0.02861141
H        8.01299528      16.20188886      28.13902876      -0.00808330       0.00730619       0.01084928       0.03187603
H        9.17676479      16.44559685      26.18275297      -0.01059549      -0.01976721      -0.00697923       0.03866086
H        8.38213644      16.84028142      24.64038360       0.00369443      -0.00770080       0.01913296       0.05290532
H        7.64408511      17.36275557      26.17477733      -0.00415621      -0.01613928      -0.00782088       0.03811230
H        6.15052716      15.04440624      23.78300825      -0.00134768       0.01198377       0.00266903       0.03101198
H        7.89052995      16.05419838      18.92777118       0.01425002       0.01917320      -0.00182964       0.05085727
H        6.65545987      14.83643132      18.56279781       0.00590870      -0.00459901      -0.00454153       0.06109706
H        6.17022740      16.47390152      19.02514663      -0.00750720       0.01395429       0.00922046       0.05417654
H        7.60161180      15.86143698      22.43086703       0.00860782       0.01020958       0.00641003       0.07828412
H        6.20679768      16.80593613      21.86546691       0.00540967      -0.01626533      -0.01066022       0.05303355
H        7.80263732      17.05089437      21.12934341       0.00054905       0.00482925      -0.02098201       0.05101122
H        6.56409267      13.30813863      20.10648570      -0.00107314       0.01067546       0.00962300       0.03872260
H        2.73720819       6.30936764      20.73890089      -0.01928749       0.00231557       0.00366428       0.07173721
H        4.20703564       7.06961761      18.64021580       0.00341001       0.01824481       0.00725698       0.06127704
H        7.25493328       8.93190753      20.01263803       0.01291680      -0.00098562      -0.00015826       0.07350440
H        7.41848599       6.49826982      19.35936714       0.02390268       0.00068280      -0.00025819       0.04715961
H        6.57495822       6.86992409      17.85246305      -0.00182734       0.01187403       0.00900022       0.04693571
H        8.14970632       7.59556345      18.18583628      -0.02410997       0.00104557      -0.00202405       0.05199608
H        5.64491765      10.37117276      18.83934012       0.00063049      -0.00504538      -0.00217129       0.04913292
H        6.91465377       9.85883705      17.72395362       0.00925170       0.01192583      -0.00889550       0.04964498
H        5.31802131       9.10806907      17.64717919      -0.00196010      -0.00927231       0.00768841       0.04734906
H        2.56884656       5.49375938      22.47415192       0.00050331       0.01683668      -0.00738136       0.06268937
H        2.67587473       5.89955764      26.67884560       0.00051575       0.01510981      -0.02271224       0.04546307
H        5.46295025       5.55346866      26.79897508       0.00577613      -0.00905019       0.00871735       0.06971521
H        5.59485895       5.85303366      29.50785539       0.00081512       0.00129243       0.00547992       0.05945678
H        4.02319383       7.03436212      30.89514365      -0.00570748      -0.00383663      -0.02619842       0.05177096
H        5.65282309       9.61188501      30.90987403       0.02411271      -0.00991990       0.01410294       0.05539217
H        6.28581001       7.98760037      31.17257532      -0.00384057       0.02530980      -0.00001209       0.04937339
H        5.11896165       8.67599898      32.30590965      -0.00117778       0.00477161      -0.01862455       0.05334616
H        2.19939496       8.39854049      29.90223629       0.00939683       0.00326727       0.00011455       0.05003799
H        2.63298487       8.89343006      31.53872251      -0.01580410       0.01435477       0.02331308       0.05568301
H        3.14421178       9.86336898      30.15733406      -0.00361106       0.00386021      -0.00377051       0.06584577
H        4.09828673      11.21816032      20.60143678      -0.00883130      -0.01435373       0.00592111       0.01794906
