102
Properties=species:S:1:pos:R:3:forces:R:3:charge:R:1 energy=-4932.887956390659 free_energy=-4932.887956390659 dipole="1.509784705922642 0.9438772114923841 -0.182707086849489" pbc="F F F"
C        7.87500307       9.51870890      25.49582874      -0.00833231       0.01007439       0.00620516       0.08860262
O        6.59926443       9.02767927      25.44016516      -0.00579950      -0.01157138       0.01941038      -0.43515409
C        4.07355203       9.73006627      27.66136722      -0.00263179       0.01891192      -0.04513431      -0.01439253
C        3.65160075       9.97293782      26.32617336       0.00582953       0.00031708       0.00678951      -0.03375014
C        4.35092929      10.85741886      25.52881412      -0.01139366       0.01910616       0.00288729      -0.03345408
C        5.05781862      11.85409889      26.21263650       0.00519817       0.00189520      -0.00242178       0.06161482
C        5.08088126      11.89316588      27.63424280       0.00851026       0.00800216       0.00569470      -0.01594471
C        4.72148212      10.76434416      28.35028388       0.01602618       0.00139548      -0.00875955      -0.04022541
C        5.83645809      13.05763249      27.99076726       0.02690948      -0.00125371      -0.00110769      -0.01583006
C        6.17949117      13.59451448      29.22631778      -0.00109026      -0.00337464       0.01539368      -0.04668864
C        6.96181788      14.72553010      29.25098021      -0.00177005      -0.00406624      -0.00451220      -0.04380464
C        7.39444797      15.32170331      28.06836946       0.01083142      -0.00444503      -0.01141751      -0.07508136
C        7.06821358      14.80764592      26.82206816       0.01948480      -0.00851404      -0.00161022       0.12680521
O        7.48677239      15.36119055      25.64134881       0.00298797       0.00838105       0.00762253      -0.27542810
C        8.21020261      16.56477591      25.68121310       0.01017614      -0.00442829       0.01010677       0.04279333
C        6.27113858      13.65245395      26.78044533       0.00440010       0.00148404      -0.00237639       0.02756928
N        5.80979507      12.89492417      25.71952918       0.01102375      -0.01276943      -0.00068544      -0.01162347
C        6.10388078      12.94859517      24.36107257       0.00208508       0.00073685      -0.00366758       0.11024651
C        6.23902570      14.01628086      23.50836263       0.00355191       0.00607076       0.01682339      -0.09450806
C        6.60277059      14.00502870      20.93395569      -0.01005007      -0.00841163       0.00254502       0.00270933
N        6.88063551      15.27678754      20.58386329      -0.00400075      -0.00878210       0.00299099      -0.03220066
C        6.90042879      15.67932262      19.20445389      -0.01565510       0.00026578       0.01262968      -0.05341209
C        7.13089140      16.30524205      21.55639402      -0.00271580       0.00532305       0.00620672      -0.05589553
C        6.40168805      13.46915444      22.19253018      -0.02113236      -0.00249107       0.00761502      -0.03724176
C        6.34409721      12.05993938      22.39424901       0.02332192      -0.01446587       0.02048689       0.05816270
N        6.19358386      11.75853018      23.69303281      -0.03099547      -0.00973498       0.00010472      -0.19858794
Ir       5.23400783       9.69508965      24.07454023      -0.00610837      -0.02519780       0.03492721       0.13984885
C        5.34056214       8.08078336      21.49658032       0.00521111       0.00626672       0.00131147       0.18839161
N        4.25458854       7.34248054      21.89531528       0.02208568      -0.01236531       0.00467518      -0.01847040
C        3.65209659       6.85719167      20.74216275       0.01283071      -0.00600479      -0.01213063      -0.01833086
C        4.36839136       7.25915445      19.68049062       0.01249676      -0.01786485      -0.00755028      -0.01209729
N        5.43043142       8.00886051      20.13220638      -0.00894550       0.00660768      -0.00575314      -0.04989164
C        6.54004803       8.47010051      19.32188761       0.00065332      -0.01569278       0.00741000       0.04305607
C        7.21060644       7.28109108      18.63369044       0.00187746      -0.00663580      -0.00710097      -0.11530198
C        6.07034945       9.51851229      18.31655271       0.00143324      -0.00158678       0.00025080      -0.11357300
C        3.82331210       7.09166670      23.21346050      -0.00100093      -0.01139585       0.02301550       0.06663636
C        2.91346154       6.04252264      23.33270976      -0.00981086      -0.00465568       0.01997586      -0.04868797
C        2.43019465       5.67189281      24.57211187      -0.00944673      -0.03232965       0.00683339      -0.03708743
C        1.40037654       4.59548525      24.71632916       0.01039590      -0.00254615       0.01947967       0.48506400
F        0.82021392       4.24577954      23.55913006       0.01661062       0.02474439       0.03484008      -0.20653203
F        1.91838657       3.45234965      25.22678454       0.00827883       0.02434125      -0.00386529      -0.21899081
F        0.40669809       4.93915372      25.55642154       0.01603034      -0.00798955      -0.01925940      -0.20966180
C        2.98083498       6.24840465      25.70144728      -0.00770806      -0.02208730      -0.01612181      -0.04754136
C        3.93252843       7.25970068      25.58413850      -0.01119354      -0.01810449      -0.00002340       0.06611840
C        4.30273206       7.81933028      24.33871679      -0.00249919       0.00529274       0.03101446      -0.05189799
N        4.54611268       7.47804936      26.88048859       0.00403494       0.01086272      -0.00982790       0.01166410
C        5.14124456       6.36310124      27.42031399      -0.01162608      -0.00524022      -0.02659403      -0.00216006
C        5.20736041       6.51057827      28.75737965      -0.00103163      -0.02206005      -0.00892466      -0.01844212
N        4.64884899       7.72487640      29.07876357      -0.00141982      -0.00482842      -0.00229902      -0.01513180
C        4.25055709       8.01379424      30.45042562       0.01023559      -0.00049211       0.01267538       0.04323127
C        5.40117767       8.61510123      31.25773022       0.00692121       0.00357608      -0.00482262      -0.11639250
C        2.97943066       8.85149543      30.51005084      -0.00568443       0.00250108       0.01807752      -0.12290140
C        4.28394574       8.34376807      27.91784419      -0.00904890       0.00407265       0.00709939       0.10050024
N        6.82373414       9.85192004      21.89904953       0.01002580      -0.00579196       0.00029742      -0.18566378
N        6.13299235       8.73618772      22.29310737       0.00808274       0.00221693       0.00037174      -0.12772734
C        3.94829876      10.29309563      22.54636834      -0.00846768       0.02045410       0.00734149      -0.13327067
C        2.46140994      10.21050964      22.46804404      -0.01065908       0.02585002      -0.02357587       0.48039037
F        1.86029501      11.36217651      22.08495639       0.00498870       0.00871114      -0.00995846      -0.22466492
F        2.03917641       9.28446092      21.55740432      -0.00525546       0.01611181      -0.00847256      -0.23996709
F        1.85986549       9.85712695      23.61824069       0.00298289      -0.00967028      -0.01059398      -0.21633432
C        4.58538405      10.79233381      21.47329630      -0.01989802      -0.01359293       0.00537716      -0.04490038
C        6.07095700      10.87796081      21.59536411      -0.00782756       0.00426401      -0.01562849       0.05696057
H        8.45855517       9.24491140      24.60243904      -0.00661551      -0.00207733      -0.01149149       0.02373434
H        7.91661204      10.61586023      25.58704046      -0.02850435       0.01733572      -0.00652722       0.00577512
H        8.38245500       9.08859418      26.37677155       0.02506470      -0.01002580      -0.01832360       0.00250757
H        2.91135658       9.31848277      25.89772412      -0.01006885      -0.01886063      -0.01394403       0.06772307
H        5.06995069      10.65185118      29.36321296      -0.01086060       0.01026183      -0.02608256       0.03645362
H        5.84403651      13.12960797      30.14045508      -0.01784391      -0.00844102      -0.00933983       0.02846466
H        7.25838976      15.16198281      30.19336842      -0.01420923       0.01233017      -0.01672125       0.02861141
H        8.01299482      16.20188914      28.13902885      -0.00808360       0.00730549       0.01084878       0.03187603
H        9.17676533      16.44559645      26.18275327      -0.01059529      -0.01976799      -0.00697838       0.03866087
H        8.38213740      16.84028112      24.64038388       0.00369369      -0.00770061       0.01913202       0.05290533
H        7.64408586      17.36275541      26.17477749      -0.00415642      -0.01613897      -0.00782128       0.03811231
H        6.15052753      15.04440607      23.78300817      -0.00134818       0.01198524       0.00267019       0.03101199
H        7.89052943      16.05419904      18.92777130       0.01424831       0.01917306      -0.00182993       0.05085728
H        6.65545933      14.83643179      18.56279810       0.00590944      -0.00459899      -0.00454215       0.06109706
H        6.17022665      16.47390177      19.02514719      -0.00750621       0.01395417       0.00922150       0.05417654
H        7.60161154      15.86143714      22.43086744       0.00860734       0.01021077       0.00640844       0.07828411
H        6.20679733      16.80593620      21.86546707       0.00541189      -0.01626627      -0.01066121       0.05303353
H        7.80263717      17.05089443      21.12934357       0.00054804       0.00482915      -0.02098023       0.05101122
H        6.56409296      13.30813894      20.10648560      -0.00107395       0.01067307       0.00962198       0.03872259
H        2.73720819       6.30936786      20.73890098      -0.01928800       0.00231509       0.00366382       0.07173721
H        4.20703533       7.06961804      18.64021579       0.00341011       0.01824499       0.00725635       0.06127704
H        7.25493346       8.93190739      20.01263753       0.01291711      -0.00098562      -0.00015774       0.07350438
H        7.41848579       6.49826950      19.35936688       0.02390275       0.00068212      -0.00025711       0.04715962
H        6.57495778       6.86992377      17.85246299      -0.00182788       0.01187358       0.00899956       0.04693572
H        8.14970598       7.59556291      18.18583583      -0.02410828       0.00104610      -0.00202479       0.05199609
H        5.64491811      10.37117272      18.83933944       0.00063044      -0.00504598      -0.00217161       0.04913292
H        6.91465399       9.85883652      17.72395283       0.00924981       0.01192449      -0.00889340       0.04964497
H        5.31802136       9.10806878      17.64717877      -0.00195964      -0.00927187       0.00768932       0.04734905
H        2.56884687       5.49375949      22.47415206       0.00050278       0.01683502      -0.00738427       0.06268938
H        2.67587459       5.89955794      26.67884555       0.00051633       0.01511013      -0.02271256       0.04546307
H        5.46295031       5.55346876      26.79897521       0.00577673      -0.00905167       0.00871613       0.06971521
H        5.59485874       5.85303349      29.50785543       0.00081518       0.00129243       0.00548054       0.05945678
H        4.02319416       7.03436214      30.89514371      -0.00570834      -0.00383630      -0.02619792       0.05177095
H        5.65282282       9.61188540      30.90987400       0.02411281      -0.00992314       0.01410444       0.05539215
H        6.28581033       7.98760072      31.17257515      -0.00384359       0.02531207      -0.00001209       0.04937337
H        5.11896182       8.67599902      32.30590972      -0.00117717       0.00477151      -0.01862653       0.05334615
H        2.19939514       8.39854023      29.90223638       0.00939498       0.00326746       0.00011331       0.05003801
H        2.63298490       8.89342979      31.53872257      -0.01580486       0.01435476       0.02331464       0.05568302
H        3.14421164       9.86336895      30.15733438      -0.00361094       0.00386123      -0.00377176       0.06584577
H        4.09828678      11.21815938      20.60143633      -0.00883124      -0.01435355       0.00592098       0.01794906
