104
Properties=species:S:1:pos:R:3:forces:R:3:charge:R:1 energy=-5482.6347197679615 free_energy=-5482.6347197679615 dipole="1.1665636235579748 2.165907559255354 1.1800722462793465" pbc="F F F"
C        4.09140633       7.46720204      18.39261108      -0.00178574      -0.00232266      -0.01769691      -0.11188716
C        4.44077813       8.59597501      19.35863784      -0.02507332      -0.02642865       0.00274167       0.05981994
C        4.92836866       9.84264444      18.62519027      -0.00602281      -0.03395820       0.02502445      -0.11098042
N        5.50801518       8.12072611      20.20535694       0.01734932       0.03703483       0.00809025      -0.14350493
C        5.92244562       8.62333733      21.52083975       0.00725299       0.00502163      -0.01411802       0.03178640
C        4.71563598       8.82280709      22.44911340      -0.00259562       0.00908187       0.01959653      -0.01545293
N        4.25267115       7.47985361      22.14021215       0.00420651      -0.00544792      -0.00862989      -0.06367583
C        5.41933217       7.25403229      21.27793687       0.00333534      -0.00558539      -0.01442204       0.02632688
Ir       4.84928632       9.10002558      24.61061181      -0.01669154       0.00613406       0.00624482       0.01495561
C        4.65113331       8.44326149      26.59012685      -0.03063751       0.01456769      -0.00159011       0.01243985
N        3.95221813       7.29203972      26.74146150      -0.00287115      -0.00553956      -0.00871045       0.04643873
C        3.83556439       6.98087532      28.06428069       0.01233561       0.00108502      -0.00849818      -0.01215199
C        4.48336905       7.95748416      28.74819963      -0.00329465       0.00118751      -0.00222654      -0.01359076
N        4.98251357       8.84226131      27.82624568      -0.00998785       0.00369879       0.00281469       0.02131196
C        5.75991503      10.03370269      28.11041279      -0.00447575      -0.00763148      -0.00445505       0.03941181
C        6.90727647       9.71608564      29.06537043      -0.00224468      -0.00029937      -0.00630522      -0.11735828
C        4.85743262      11.14935709      28.63423824       0.00211790      -0.00189331      -0.01055244      -0.11598995
C        3.57590110       6.61313478      25.57189863       0.01128377      -0.02765269      -0.00358136       0.05659597
C        2.97341818       5.36686229      25.49268084      -0.00270549      -0.02134859      -0.01108837      -0.04399413
C        2.80192688       4.80685569      24.22605454      -0.00712692      -0.00841054      -0.01378938      -0.02372372
C        2.11328463       3.47354430      24.12559999      -0.00010156       0.01014570       0.00892643       0.48558718
F        0.77284034       3.59424360      24.23366257       0.01055828       0.00937254       0.01197005      -0.20993392
F        2.33325534       2.84312711      22.96520528       0.02116002       0.01915166       0.01970328      -0.20153763
F        2.47926519       2.62201517      25.09903667       0.01299288       0.01932438       0.00607433      -0.20662588
C        3.21784432       5.44812527      23.06821967       0.00763495       0.00309553       0.00044710      -0.04252387
C        3.78422636       6.71954018      23.17257735      -0.00150302       0.00979896       0.00328629       0.08642578
C        3.94312954       7.32192474      24.43193998      -0.00545492      -0.00215442       0.00583948      -0.04014696
C        3.12021846      10.15972266      24.90182568      -0.02023219       0.00529816       0.00935211      -0.06413079
C        1.89154228       9.60609719      25.27291241      -0.01307667      -0.01775833       0.00538822      -0.03357084
C        0.72582690      10.35261123      25.44414223      -0.00364221      -0.01381747       0.01568331      -0.03436234
C       -0.50986468       9.62648316      25.88950656       0.01319238       0.00187939      -0.02473096       0.48388276
F       -1.47913782      10.44752774      26.32149530       0.02225530      -0.02435270      -0.00054219      -0.20642925
F       -0.25394453       8.77525832      26.90439906      -0.02495900       0.02335256      -0.02331750      -0.21486806
F       -1.05433805       8.88149260      24.90994895      -0.00075825      -0.00631656       0.01102991      -0.20840135
C        0.69293219      11.71127574      25.19096356       0.00213406      -0.00702258       0.02886725      -0.03305077
C        1.88910690      12.30200125      24.82210935       0.01362037      -0.00900701       0.00648513      -0.00932917
C        2.20307833      13.65036931      24.44725171       0.01115918       0.00019149      -0.02242061      -0.00392293
C        1.41701491      14.77959000      24.28820312       0.00853800       0.02012023      -0.00223412      -0.02623734
C        2.02032522      15.92433230      23.79530525       0.01231955       0.02018084      -0.00536228      -0.03207058
C        1.22399173      17.18980366      23.66092620       0.00161215      -0.00080112      -0.00205021       0.48562504
F        1.39949835      18.00378433      24.72467761       0.01553760       0.00514258      -0.01557313      -0.21282976
F        1.56779126      17.91229509      22.58245498       0.01287181      -0.00197081       0.01134115      -0.20709618
F       -0.09560039      16.97672586      23.57270801       0.00066353      -0.01469497      -0.00386838      -0.20426223
C        3.36720626      15.93121390      23.42659579       0.00623120      -0.00042598      -0.00523366      -0.02872822
C        4.15831644      14.81162360      23.59755917       0.00909176       0.01217811       0.02719448      -0.04523428
C        3.58740118      13.67917076      24.16712571       0.01521086      -0.00323909      -0.00695156       0.05228087
N        4.13592136      12.43108886      24.43689639       0.02728529       0.01161166       0.00713280      -0.03438723
C        3.08481782      11.55134015      24.74107901       0.03092046       0.00982836      -0.00247373       0.04981676
C        5.49067721      12.20053794      24.64533124       0.01040405      -0.00260632       0.01527968       0.13926888
C        6.33691388      13.25799345      24.97359720      -0.01855432       0.00215939       0.00728408      -0.07432768
C        7.71292726      13.06669725      25.06921610      -0.01898177       0.00641376      -0.00858643       0.02818999
C        8.61403746      14.23225884      25.42936032      -0.01871356      -0.00522217      -0.00023964       0.02678767
C       10.09764039      13.87174736      25.31376021      -0.01002141       0.00493597      -0.00326321      -0.11239533
C        8.31649559      14.63593218      26.88093003       0.00240614       0.00256401       0.00188722      -0.10708664
C        8.32209302      15.41613114      24.49531492       0.00985362      -0.00681076       0.00319806      -0.10821639
C        8.18234940      11.78133869      24.84901586       0.01052693       0.00780158       0.00447626      -0.06343966
C        7.28208203      10.73792167      24.65490703       0.00220696       0.01468018       0.00330190       0.08331776
N        5.94675299      10.94409406      24.57727031      -0.00639292      -0.00458423       0.00652649      -0.14250873
C        7.70758396       9.37080964      24.55188725      -0.00565206      -0.00310074      -0.01429701       0.02199336
C        8.96451840       8.76367785      24.49529652      -0.00253736       0.00097817      -0.00150969      -0.07435386
C        8.65859666       7.40883534      24.39161272      -0.00118957      -0.00444078       0.00866632       0.01969149
C        9.62668418       6.29386578      24.24291311       0.00042917       0.00635602      -0.00011670       0.48377971
F       10.80996259       6.58505731      24.82754034      -0.00719670       0.00753603       0.01903009      -0.22053452
F        9.92331248       6.03395095      22.95183794      -0.01348343      -0.01521598      -0.00147132      -0.21413395
F        9.21887380       5.13716950      24.77773446      -0.02536453       0.01626300       0.00674231      -0.20204245
N        7.33003047       7.21870764      24.39104362       0.00351531      -0.02103186      -0.04338390      -0.19915950
N        6.76881727       8.39137141      24.48115252       0.00214631      -0.01979356      -0.01075334      -0.04088334
H        4.96079640       7.22310644      17.78766859      -0.01109326      -0.02334346       0.00017638       0.05331272
H        3.79512913       6.58144251      18.95025632       0.00506947       0.01715367      -0.01760265       0.04963243
H        3.27437738       7.76130685      17.73908962       0.00743166       0.01925630       0.01065616       0.04465006
H        3.53997409       8.84558121      19.94452902      -0.00598980      -0.00606162       0.04208693       0.01458846
H        5.24926610      10.59878982      19.33801916      -0.01644656       0.02292212       0.02081802       0.03693178
H        5.77368234       9.59268100      17.98939989      -0.01685300      -0.00476980      -0.00813030       0.05263501
H        4.12817841      10.25350501      18.01507982       0.02102901      -0.00378574      -0.01883115       0.04377416
H        6.91678206       9.01349621      21.63586086       0.01210599       0.00502733      -0.01751231       0.04253204
H        3.99135867       9.56600051      22.08062915      -0.00590462       0.01449580      -0.00544589       0.05303746
H        3.31200958       6.11626980      28.41670594       0.03381567       0.01618819       0.01430438       0.07578623
H        4.63007794       8.07242848      29.80170286      -0.01673966       0.02305340      -0.00996878       0.06874797
H        6.17799877      10.34898292      27.14794165       0.01436797      -0.01291857       0.00803553       0.06035719
H        7.59788794      10.55407509      29.09780890      -0.00675611       0.00949086       0.00907169       0.05514155
H        6.54794286       9.53369907      30.07488706      -0.02196703      -0.00143198      -0.01185554       0.05497849
H        7.45007445       8.83846780      28.72219524       0.00475244       0.00075783      -0.00570899       0.05604568
H        4.40153341      10.87572251      29.58280538       0.01576920      -0.02547176      -0.01288903       0.05553413
H        4.06767769      11.35949186      27.91590354      -0.01727677      -0.01361009       0.00484899       0.04769682
H        5.44435515      12.05225371      28.77869985      -0.01149810       0.01013215       0.01810500       0.05543489
H        2.65901536       4.82621205      26.37094370       0.01251368      -0.01663207      -0.00220987       0.06454711
H        3.12318193       4.96712198      22.10748024      -0.02641518       0.01633631       0.00970587       0.07513257
H        1.81256433       8.54102842      25.42899475       0.01295404      -0.02428737      -0.00562207       0.05551383
H       -0.21449337      12.28463515      25.28271911      -0.01205833       0.00494505      -0.00225633       0.06151338
H        0.36576740      14.76770035      24.52640789      -0.00561934      -0.02159427      -0.00745251       0.06728917
H        3.79089414      16.82226486      22.98969282      -0.01196439      -0.00078356       0.00117388       0.06172783
H        5.18183656      14.82605194      23.25832724      -0.01365578      -0.00006161       0.00156456       0.05403624
H        5.90829851      14.22034576      25.18745370      -0.01133489       0.00344668      -0.00180909       0.05172970
H       10.70378566      14.74686491      25.53432700      -0.00966162       0.01739122       0.00511011       0.04581029
H       10.37194267      13.09392253      26.02246960      -0.01169484      -0.00533920      -0.00438719       0.04068076
H       10.34175395      13.53995420      24.30753388      -0.00552157       0.00243327      -0.01014668       0.04262277
H        7.27659597      14.92773767      27.00622856       0.00157203      -0.00093246      -0.00531314       0.03731149
H        8.94442505      15.47668452      27.16381823      -0.00110935       0.00995832       0.00985407       0.04977835
H        8.52541218      13.80909467      27.55690704       0.00006769      -0.00765130      -0.00696730       0.03455272
H        8.41703482      15.11358388      23.45439954       0.01095954      -0.00659720       0.00536024       0.03767783
H        7.32316983      15.81542583      24.65142876       0.01524736      -0.00868943      -0.00031686       0.03843830
H        9.03275876      16.21659408      24.68470596       0.00098806       0.00296602      -0.00274067       0.04778403
H        9.23034352      11.54717212      24.86888808       0.02562035      -0.01451133       0.00629934       0.05976411
H        9.93641051       9.21011295      24.52326190       0.00426488       0.00523243      -0.00558742       0.02860975
