102
Properties=species:S:1:pos:R:3:forces:R:3:charge:R:1 energy=-4932.88795636598 free_energy=-4932.88795636598 dipole="1.509784855221269 0.9438770393774174 -0.18270737120519295" pbc="F F F"
C        7.87500305       9.51870881      25.49582846      -0.00833106       0.01007273       0.00620487       0.08860265
O        6.59926447       9.02767913      25.44016519      -0.00580183      -0.01157282       0.01940981      -0.43515410
C        4.07355191       9.73006623      27.66136713      -0.00263221       0.01891134      -0.04513593      -0.01439251
C        3.65160071       9.97293793      26.32617331       0.00583065       0.00031811       0.00678514      -0.03375015
C        4.35092926      10.85741919      25.52881415      -0.01139592       0.01910171       0.00288830      -0.03345417
C        5.05781865      11.85409910      26.21263658       0.00519736       0.00189290      -0.00242462       0.06161483
C        5.08088128      11.89316595      27.63424281       0.00850909       0.00799985       0.00569769      -0.01594469
C        4.72148184      10.76434419      28.35028376       0.01603007       0.00139552      -0.00875434      -0.04022540
C        5.83645827      13.05763239      27.99076735       0.02690802      -0.00125373      -0.00111012      -0.01583005
C        6.17949145      13.59451430      29.22631777      -0.00109064      -0.00337439       0.01539782      -0.04668863
C        6.96181821      14.72552985      29.25098019      -0.00176941      -0.00406522      -0.00451345      -0.04380465
C        7.39444824      15.32170315      28.06836947       0.01083073      -0.00444487      -0.01141858      -0.07508135
C        7.06821358      14.80764594      26.82206815       0.01948598      -0.00851418      -0.00160956       0.12680520
O        7.48677219      15.36119052      25.64134868       0.00298678       0.00838013       0.00762410      -0.27542810
C        8.21020209      16.56477602      25.68121281       0.01017752      -0.00442695       0.01010562       0.04279334
C        6.27113863      13.65245399      26.78044542       0.00440154       0.00148372      -0.00237549       0.02756929
N        5.80979529      12.89492423      25.71952929       0.01102171      -0.01276904      -0.00068755      -0.01162346
C        6.10388088      12.94859533      24.36107264       0.00208537       0.00073439      -0.00366726       0.11024653
C        6.23902564      14.01628094      23.50836269       0.00355195       0.00607440       0.01682147      -0.09450806
C        6.60277063      14.00502866      20.93395566      -0.01005158      -0.00841327       0.00254501       0.00270932
N        6.88063531      15.27678751      20.58386316      -0.00399952      -0.00878431       0.00299073      -0.03220062
C        6.90042904      15.67932229      19.20445374      -0.01565504       0.00026846       0.01262854      -0.05341209
C        7.13089162      16.30524188      21.55639391      -0.00271623       0.00532331       0.00620591      -0.05589554
C        6.40168810      13.46915450      22.19253019      -0.02113312      -0.00249031       0.00761615      -0.03724178
C        6.34409732      12.05993943      22.39424906       0.02332303      -0.01446428       0.02048948       0.05816277
N        6.19358415      11.75853033      23.69303290      -0.03099603      -0.00973698       0.00010418      -0.19858800
Ir       5.23400767       9.69508959      24.07454031      -0.00610686      -0.02519703       0.03492737       0.13984869
C        5.34056191       8.08078351      21.49658028       0.00520890       0.00626609       0.00131216       0.18839158
N        4.25458816       7.34248089      21.89531524       0.02208410      -0.01236975       0.00467559      -0.01847039
C        3.65209648       6.85719153      20.74216276       0.01283170      -0.00600341      -0.01213271      -0.01833086
C        4.36839139       7.25915410      19.68049061       0.01249782      -0.01786380      -0.00754966      -0.01209730
N        5.43043136       8.00886035      20.13220638      -0.00894680       0.00660680      -0.00575160      -0.04989162
C        6.54004796       8.47010063      19.32188786       0.00065442      -0.01569328       0.00740877       0.04305605
C        7.21060673       7.28109143      18.63369056       0.00187773      -0.00663512      -0.00710043      -0.11530197
C        6.07034926       9.51851259      18.31655321       0.00143239      -0.00158842       0.00025257      -0.11357302
C        3.82331174       7.09166665      23.21346041      -0.00100045      -0.01139382       0.02301596       0.06663636
C        2.91346115       6.04252260      23.33270971      -0.00980919      -0.00465722       0.01997149      -0.04868796
C        2.43019459       5.67189258      24.57211187      -0.00944857      -0.03233041       0.00683373      -0.03708742
C        1.40037673       4.59548473      24.71632910       0.01039466      -0.00254621       0.01948017       0.48506399
F        0.82021410       4.24577877      23.55913009       0.01661168       0.02474496       0.03483872      -0.20653203
F        1.91838695       3.45234928      25.22678455       0.00828029       0.02434048      -0.00386502      -0.21899080
F        0.40669812       4.93915287      25.55642139       0.01602983      -0.00798812      -0.01925799      -0.20966181
C        2.98083482       6.24840452      25.70144731      -0.00770763      -0.02208837      -0.01612439      -0.04754137
C        3.93252825       7.25970054      25.58413844      -0.01119362      -0.01810347      -0.00002331       0.06611839
C        4.30273178       7.81933014      24.33871671      -0.00249875       0.00529358       0.03101493      -0.05189794
N        4.54611253       7.47804928      26.88048852       0.00403467       0.01086291      -0.00982790       0.01166412
C        5.14124447       6.36310120      27.42031390      -0.01162487      -0.00524088      -0.02659355      -0.00216005
C        5.20736051       6.51057837      28.75737955      -0.00103188      -0.02205995      -0.00892398      -0.01844212
N        4.64884911       7.72487653      29.07876352      -0.00142059      -0.00483115      -0.00229896      -0.01513183
C        4.25055707       8.01379424      30.45042564       0.01023375      -0.00049101       0.01267213       0.04323128
C        5.40117768       8.61510114      31.25773018       0.00692012       0.00357481      -0.00482230      -0.11639251
C        2.97943074       8.85149562      30.51005080      -0.00568550       0.00250249       0.01807657      -0.12290139
C        4.28394561       8.34376797      27.91784411      -0.00904927       0.00407638       0.00709932       0.10050021
N        6.82373411       9.85191997      21.89904955       0.01002350      -0.00578768       0.00029613      -0.18566378
N        6.13299191       8.73618804      22.29310736       0.00808322       0.00221353       0.00037333      -0.12772717
C        3.94829880      10.29309598      22.54636852      -0.00846867       0.02045289       0.00734128      -0.13327066
C        2.46140999      10.21050996      22.46804425      -0.01065928       0.02585215      -0.02357647       0.48039036
F        1.86029507      11.36217689      22.08495649       0.00498888       0.00870959      -0.00995793      -0.22466495
F        2.03917643       9.28446121      21.55740456      -0.00525537       0.01611219      -0.00847198      -0.23996708
F        1.85986558       9.85712739      23.61824094       0.00298256      -0.00967025      -0.01059458      -0.21633430
C        4.58538411      10.79233430      21.47329655      -0.01989871      -0.01359369       0.00537656      -0.04490035
C        6.07095706      10.87796092      21.59536416      -0.00782512       0.00426365      -0.01562788       0.05696056
H        8.45855517       9.24491102      24.60243885      -0.00661639      -0.00207577      -0.01149268       0.02373430
H        7.91661182      10.61586008      25.58704012      -0.02850296       0.01733777      -0.00652801       0.00577514
H        8.38245533       9.08859425      26.37677110       0.02506431      -0.01002637      -0.01832108       0.00250754
H        2.91135673       9.31848275      25.89772381      -0.01006826      -0.01885906      -0.01394293       0.06772308
H        5.06995045      10.65185092      29.36321293      -0.01086150       0.01026333      -0.02608601       0.03645359
H        5.84403685      13.12960798      30.14045522      -0.01784396      -0.00844159      -0.00934085       0.02846465
H        7.25839007      15.16198241      30.19336841      -0.01420818       0.01233134      -0.01671987       0.02861141
H        8.01299513      16.20188892      28.13902884      -0.00808298       0.00730654       0.01084894       0.03187603
H        9.17676491      16.44559673      26.18275293      -0.01059654      -0.01976689      -0.00697933       0.03866086
H        8.38213663      16.84028117      24.64038347       0.00369429      -0.00770092       0.01913372       0.05290531
H        7.64408517      17.36275550      26.17477709      -0.00415570      -0.01613970      -0.00782086       0.03811230
H        6.15052703      15.04440618      23.78300819      -0.00134742       0.01198381       0.00266930       0.03101198
H        7.89052969      16.05419868      18.92777124       0.01424954       0.01917293      -0.00182937       0.05085727
H        6.65545979      14.83643143      18.56279794       0.00590853      -0.00459954      -0.00454193       0.06109707
H        6.17022707      16.47390154      19.02514679      -0.00750694       0.01395376       0.00922097       0.05417654
H        7.60161183      15.86143682      22.43086712       0.00860848       0.01020938       0.00641096       0.07828412
H        6.20679773      16.80593604      21.86546722       0.00540970      -0.01626515      -0.01066055       0.05303355
H        7.80263736      17.05089434      21.12934364       0.00054877       0.00482917      -0.02098199       0.05101122
H        6.56409261      13.30813868      20.10648570      -0.00107301       0.01067526       0.00962280       0.03872260
H        2.73720816       6.30936759      20.73890086      -0.01928784       0.00231544       0.00366438       0.07173721
H        4.20703554       7.06961758      18.64021575       0.00341014       0.01824469       0.00725710       0.06127704
H        7.25493328       8.93190747      20.01263797       0.01291663      -0.00098583      -0.00015829       0.07350440
H        7.41848622       6.49826984      19.35936700       0.02390260       0.00068276      -0.00025803       0.04715961
H        6.57495826       6.86992400      17.85246300      -0.00182793       0.01187379       0.00899985       0.04693571
H        8.14970625       7.59556355      18.18583605      -0.02410917       0.00104577      -0.00202425       0.05199608
H        5.64491770      10.37117280      18.83934012       0.00063090      -0.00504559      -0.00217134       0.04913292
H        6.91465377       9.85883696      17.72395355       0.00925151       0.01192607      -0.00889552       0.04964498
H        5.31802122       9.10806912      17.64717925      -0.00196001      -0.00927233       0.00768818       0.04734905
H        2.56884657       5.49375928      22.47415192       0.00050352       0.01683733      -0.00738062       0.06268936
H        2.67587466       5.89955776      26.67884558       0.00051541       0.01510943      -0.02271149       0.04546308
H        5.46295024       5.55346869      26.79897511       0.00577617      -0.00905051       0.00871715       0.06971521
H        5.59485894       5.85303369      29.50785536       0.00081538       0.00129202       0.00548055       0.05945678
H        4.02319382       7.03436219      30.89514366      -0.00570708      -0.00383637      -0.02619825       0.05177096
H        5.65282313       9.61188514      30.90987396       0.02411266      -0.00992065       0.01410299       0.05539217
H        6.28581013       7.98760049      31.17257524      -0.00384085       0.02531003      -0.00001230       0.04937339
H        5.11896183       8.67599909      32.30590960      -0.00117801       0.00477162      -0.01862394       0.05334616
H        2.19939496       8.39854061      29.90223644       0.00939650       0.00326677       0.00011450       0.05003799
H        2.63298511       8.89343025      31.53872260      -0.01580457       0.01435494       0.02331327       0.05568302
H        3.14421184       9.86336904      30.15733398      -0.00361093       0.00386043      -0.00377030       0.06584577
H        4.09828683      11.21816031      20.60143679      -0.00883112      -0.01435382       0.00592108       0.01794906
