97
Properties=species:S:1:pos:R:3:forces:R:3:charge:R:1 energy=-4876.807303022614 free_energy=-4876.807303022614 dipole="-1.0409456975925226 2.8053122928754624 0.04390272766088541" pbc="F F F"
C        9.77641218      13.89254540      25.85350215       0.01386297       0.00362440       0.01343635       0.03547272
O        8.37475975      14.00033987      25.82058810      -0.01839520       0.01364411      -0.00365562      -0.26857259
C        7.66591099      12.91332613      25.41568708       0.00281100      -0.01654392      -0.01763638       0.13936255
C        8.18092488      11.66042708      25.14405464       0.00339433      -0.01970683      -0.00543714      -0.08470565
C        7.31117021      10.63476849      24.77744382      -0.02251616      -0.00507556      -0.00179544       0.04241613
N        5.95744045      10.84323349      24.58717998      -0.02926938       0.00700482       0.00442589      -0.17535220
C        5.49386428      12.09558456      24.76800599      -0.01121499       0.01421230      -0.01784102       0.13527005
C        6.27701216      13.11750988      25.25826790      -0.00275485      -0.01238441       0.00544709      -0.09169027
N        4.15427230      12.32692784      24.47794136       0.00265058       0.00890760       0.00511278      -0.01218318
C        3.60619463      13.58344918      24.23284526       0.00341611      -0.01275686       0.00040593       0.01801669
C        4.17764386      14.72648931      23.65845847      -0.00593509      -0.01049742       0.00716507       0.13243708
O        5.45818426      14.64786904      23.19859085      -0.00302626      -0.02596064       0.01039323      -0.26756725
C        6.03011535      15.78191193      22.59499844       0.00098550      -0.01004275       0.00633958       0.03767394
C        3.36747922      15.85423725      23.54763270       0.00071565      -0.00236238       0.00772240      -0.07590881
C        2.02591364      15.83161189      23.91901598      -0.00574597      -0.02221946       0.00712125      -0.03729559
C        1.42514301      14.66998668      24.35571803       0.00071562      -0.02642866       0.01340935      -0.04460477
C        2.21814979      13.53683514      24.49107583       0.00218382      -0.01453269      -0.00653501      -0.01527326
C        1.91037335      12.17145999      24.80308123       0.00590446      -0.00092193      -0.00011070      -0.01588581
C        0.71272389      11.55423419      25.12551960       0.00664715       0.00959429       0.02196541      -0.06988245
C        0.73404682      10.17796153      25.33651866       0.00604876       0.00226328      -0.02210320       0.14071988
O       -0.36015194       9.43817728      25.66453260       0.02040913      -0.00424123      -0.00331018      -0.26238848
C       -1.61356387      10.07665584      25.67722973       0.00125600       0.00484987      -0.00428127       0.03513260
C        1.92461037       9.45772324      25.19302231       0.00019494       0.00829967      -0.01795593      -0.06832486
C        3.14908573      10.03300171      24.84131169      -0.00551527       0.02971510       0.01503228      -0.04702246
C        3.11819881      11.43487817      24.72076780       0.00807792       0.02037999       0.01367241       0.04134372
Ir       4.86763174       9.01378747      24.41857305      -0.00760392      -0.00756494       0.00742481       0.01343571
C        4.62477146       8.71799496      22.31096885      -0.00402898      -0.00957373      -0.03015454       0.00458323
N        3.94089793       7.56211868      22.03565098      -0.00476878       0.00431909      -0.01761040       0.03936035
C        3.89942113       7.33332471      20.69103985       0.01175219      -0.01169384       0.00487251      -0.01717482
C        4.56898728       8.35918905      20.10958439       0.00160823      -0.01429529       0.00704876      -0.01731478
N        5.00267147       9.19443439      21.10231172       0.01223105      -0.01570575      -0.01606275       0.01720170
C        5.79207072      10.37663718      20.79554221      -0.00212181       0.00454187       0.00088043       0.04241452
C        7.25480669      10.14718402      21.17156903      -0.01745256      -0.01199413      -0.01085177      -0.11278211
C        5.21684816      11.63897307      21.44727742      -0.01210969       0.01942678       0.01062895      -0.11609403
C        3.50052706       6.76512753      23.09014985       0.02299848       0.00814992      -0.01361785       0.05008220
C        2.75873116       5.58091783      23.01618698       0.01234292       0.02224539      -0.01407180      -0.05445145
C        2.49313139       4.90574310      24.20411729       0.01296235       0.02086352      -0.01109281      -0.03038213
C        1.64774669       3.66969896      24.14154711      -0.00059974      -0.00168707      -0.00130653       0.48518913
F        1.78098348       2.99935658      22.98554697      -0.00369401      -0.02574561       0.00528023      -0.20917758
F        1.91044989       2.79231889      25.12253389       0.01612255      -0.00354189       0.00050189      -0.20823923
F        0.32880749       3.94911694      24.24891678      -0.01297673       0.01056317      -0.00207504      -0.21613385
C        2.94771275       5.34466122      25.44396992       0.02298979      -0.00422492      -0.00213804      -0.05506134
C        3.67923389       6.53595834      25.47869021      -0.00758712       0.01554097       0.01220175       0.05013106
C        3.91748446       7.25911482      24.31722171       0.02199224      -0.01117934      -0.00377250      -0.04201223
N        4.24118227       7.15549789      26.59144982      -0.00207313       0.00979945       0.01271771       0.04151732
C        4.34120781       6.75951989      27.89514637       0.01438738      -0.00374893      -0.01732692      -0.01806177
C        5.04589440       7.72582098      28.53666896      -0.00029468      -0.01232650      -0.00592467      -0.01438638
N        5.35670954       8.69065236      27.61654962       0.01160246      -0.00273785       0.03706151       0.01946704
C        6.10334766       9.89402610      27.92305172       0.01079391       0.01388108       0.00344659       0.03819063
C        7.55732430       9.54888500      28.23858156      -0.00485084       0.00899454       0.00281914      -0.11387190
C        5.43055594      10.65325338      29.06461827       0.00534028       0.00454932      -0.00479502      -0.11585606
C        4.86967938       8.35252253      26.41053888       0.01244291      -0.00097319       0.04314327       0.00894997
N        6.83003811       8.31820144      24.31029327      -0.01000755      -0.00604727       0.00073590      -0.08595241
N        7.48523921       7.17052793      24.18330007      -0.00583774      -0.00318075       0.01409741      -0.24193783
C        8.76004820       7.48258887      24.38102236      -0.00888560       0.00747443      -0.00852947       0.12366986
C        9.85497969       6.48318232      24.33147770      -0.00978643       0.00358236       0.00099061       0.47973164
F       10.24661811       6.07849642      25.56091614      -0.01134992       0.02054960       0.00591786      -0.21741524
F       10.96328971       6.95484573      23.73391873      -0.00974190       0.00405990       0.00761474      -0.20825515
F        9.51618594       5.36759720      23.66907922      -0.01037116       0.00965993      -0.00190506      -0.20669946
N        8.97988078       8.78033953      24.64247987      -0.01102775       0.00608906      -0.02316282      -0.34497411
C        7.73819448       9.28922274      24.58700119      -0.01475955      -0.00570849      -0.00232644       0.12789970
H       10.14182399      14.89345544      26.07407679       0.03454210       0.01370587       0.01805678       0.06135454
H       10.10812186      13.20270334      26.63426749       0.01330438      -0.03246710       0.02659235       0.04321419
H       10.17355431      13.56138442      24.89015303       0.01886522       0.00523001      -0.01976318       0.04481758
H        9.22375202      11.40827848      25.22431179       0.02361580       0.01313150       0.02505174       0.05979574
H        5.85922349      14.07401093      25.51284051       0.02588097      -0.00099012      -0.01694775       0.05412723
H        5.45644225      16.10079405      21.71943881       0.00244403       0.02416390      -0.00438392       0.04209853
H        6.11757811      16.61122760      23.30297516      -0.00957162       0.02414314      -0.00894144       0.04550624
H        7.02615097      15.47587668      22.28063793       0.01199721      -0.02059818       0.00937572       0.06403912
H        3.76995648      16.77034592      23.14836055       0.02066599       0.00338009      -0.00519162       0.03962832
H        1.44718573      16.73841396      23.82673344       0.00367444      -0.01348770      -0.01776736       0.03789701
H        0.37170758      14.62839105      24.58092965      -0.00743836       0.03613161      -0.01106195       0.03768204
H       -0.18158035      12.14627807      25.22848243      -0.00801652      -0.01632896      -0.02891311       0.04317208
H       -1.84804589      10.51253176      24.70154615      -0.01703152       0.00159796      -0.02674528       0.04249609
H       -2.34248061       9.30331069      25.91060813       0.00576837      -0.02246805       0.00998056       0.06595547
H       -1.65832321      10.85926510      26.44045103      -0.01841878       0.00251263       0.04519374       0.04156562
H        1.84110376       8.39168882      25.33430836      -0.00618457       0.00327853      -0.00974141       0.05636233
H        3.43241943       6.47439935      20.25655785      -0.01315289       0.01980651       0.00748249       0.06293225
H        4.77097481       8.54664403      19.07414437      -0.01976206       0.01530552       0.02554553       0.05420618
H        5.73339477      10.48265519      19.70565027      -0.00459364      -0.00173134       0.00053779       0.04687708
H        7.64688492       9.27156565      20.65841673       0.00715731      -0.01636476       0.01120917       0.04671745
H        7.84887924      11.01104352      20.88472721      -0.01216267      -0.00156390       0.01008230       0.05092613
H        7.35334797       9.99405720      22.24165795      -0.00277973       0.00768384      -0.01870954       0.06461728
H        5.07716917      12.42411380      20.70947562      -0.00515968       0.00326452      -0.02387252       0.04494795
H        5.88239660      12.02157354      22.21323598       0.00003826      -0.02127352       0.02901810       0.06493028
H        4.25451550      11.42675222      21.90442704      -0.02380164      -0.00350485      -0.00311150       0.05544651
H        2.39530932       5.19156473      22.07926575       0.01532855      -0.00685835       0.00242042       0.05401943
H        2.73798078       4.78065585      26.33770316      -0.00157587      -0.02793681      -0.01839227       0.05460340
H        3.93113090       5.83998783      28.25841377       0.00600294       0.03084355       0.00445822       0.06462713
H        5.34262153       7.79205439      29.56290494      -0.01284582      -0.01468775      -0.02535479       0.06037581
H        6.07188534      10.51752744      27.02645885      -0.00859759      -0.01089733      -0.01674742       0.06354556
H        8.10517846      10.45958062      28.46545663       0.00862674      -0.01928074      -0.01137306       0.05336960
H        7.62127795       8.88103842      29.09505266       0.00361574       0.01055688      -0.01133765       0.05009100
H        8.02924081       9.06792762      27.38435659      -0.01490623       0.00903486       0.02198882       0.05831361
H        5.90247323      11.62480992      29.18079168      -0.01228543       0.00521229       0.00129343       0.05465013
H        4.37627588      10.80189695      28.84064301       0.00325332       0.01917495       0.01785470       0.04734655
H        5.51860645      10.11636840      30.00599071       0.00096531       0.00109970      -0.00943283       0.05096662
