107
Properties=species:S:1:pos:R:3:forces:R:3:charge:R:1 energy=-5830.10068627886 free_energy=-5830.10068627886 dipole="1.301456732591877 -1.749773743440312 -0.718635469435881" pbc="F F F"
C       -2.50438432      -4.51561903       0.00867503       0.01496071       0.03011037      -0.02874229      -0.11832069
C       -2.21806901      -3.38699545      -0.98042072      -0.00186771       0.01242091      -0.01929529       0.04203302
C       -3.01385597      -3.53649111      -2.27598249      -0.00689961      -0.01626701      -0.00769715      -0.11740646
N       -2.45815040      -2.09114061      -0.37271362       0.00198065      -0.01012559       0.02788768      -0.01376290
C       -1.48324055      -1.18317351      -0.09596673      -0.01008505       0.00253688       0.00302707       0.00268285
Ir       0.56641944      -0.74933538      -0.47553202      -0.00129025       0.00490403       0.01545421      -0.00597792
C        2.29606529       0.60215326      -0.64467960       0.00061005       0.01313231      -0.01141847      -0.00967029
N        2.10442427       1.67927000       0.19575409      -0.01024552      -0.00263823       0.00454831      -0.00050011
C        0.86483923       1.85016959       0.82789275      -0.00969512       0.00187867      -0.00092801       0.05684645
C        0.52315228       2.84783324       1.72794183      -0.00686294      -0.01611579       0.02517110      -0.05541901
C       -0.77266810       2.89242654       2.24556157      -0.00393074      -0.00900829       0.00780471       0.01940702
C       -1.18720328       3.89852355       3.30504918      -0.00978247       0.00748333      -0.00889330       0.02733101
C       -2.29106951       4.79940220       2.73718468      -0.01499761       0.00709834      -0.01435739      -0.11217543
C       -1.72695516       3.13269750       4.52272888       0.00980890       0.01384745       0.00291482      -0.11537720
C       -0.02557381       4.78195987       3.76324377      -0.00359246      -0.00195466       0.01252765      -0.11555281
C       -1.72063607       1.95782284       1.82152205       0.00691029       0.00633817      -0.01763415      -0.05134470
C       -1.34213987       0.95927030       0.94358069       0.00617395      -0.00546685      -0.00676527       0.05552121
C       -0.05513803       0.89539144       0.43857268       0.00559714      -0.00553863       0.00894470      -0.06258840
N       -2.10860560      -0.13356467       0.53269272      -0.00705871       0.01299088      -0.01786919       0.00612722
C       -3.44176971      -0.36563144       0.65583683       0.00747619      -0.00659729      -0.00383718       0.12844735
N       -4.34486077       0.42418897       1.21882388       0.01216117      -0.00828071       0.00453039      -0.24191068
C       -5.58593475      -0.04430526       1.21007259       0.01861209      -0.01348249       0.01134702       0.05660495
C       -5.93824187      -1.26557342       0.64824818       0.01380964      -0.01674748       0.00710193      -0.04731687
C       -7.35558279      -1.74211807       0.73242048      -0.00312044      -0.00720484      -0.00632002       0.48662630
F       -7.55797865      -2.51226225       1.82328951      -0.01275541      -0.01076102      -0.00333787      -0.21199489
F       -8.24870026      -0.74840556       0.80667939       0.01521085       0.01850128       0.00970377      -0.20283658
F       -7.71209330      -2.49879423      -0.31934529       0.01272721      -0.02067476      -0.01434933      -0.20813058
C       -4.98282987      -2.10334877       0.05500257       0.00879086      -0.02093390       0.00152180      -0.03970694
C       -3.67744198      -1.62693358       0.06577887       0.00020194      -0.00217927      -0.00788149       0.03281730
C        3.12602289       2.56951861       0.09723718       0.00140577      -0.01133190       0.01681064       0.12966588
N        3.28172193       3.70944086       0.75912287       0.00222078      -0.01407184       0.00473625      -0.24622257
C        4.37472097       4.39022637       0.44666157      -0.01143600       0.01145887       0.00663490       0.05656237
C        5.30113638       3.97602175      -0.50521549      -0.01407543      -0.00619025       0.00398816      -0.04852359
C        6.50792404       4.81907188      -0.77255602      -0.00474256       0.00017436       0.00585619       0.48679776
F        6.94759356       4.70317101      -2.03733825       0.01097098       0.01538391       0.01120693      -0.20831163
F        7.55106384       4.48150873       0.01390176       0.00998731      -0.00585142      -0.00726964      -0.21132740
F        6.28620647       6.12282843      -0.55859630       0.03548753       0.01723524      -0.02229625      -0.20478518
C        5.14158576       2.77381395      -1.20427657      -0.00489754      -0.01790407       0.00875204      -0.04315724
C        4.00219131       2.04904954      -0.87515557       0.00273970      -0.01712994       0.02146667       0.02841743
N        3.46373017       0.86026443      -1.30519911      -0.00477789       0.01280601      -0.00889384      -0.01491016
C        4.02816172       0.18959856      -2.46751889      -0.00981593      -0.01305943       0.00945255       0.04551506
C        3.12089387       0.42573621      -3.67554479       0.00408690      -0.00587849       0.01930252      -0.11434746
C        4.29031555      -1.28803017      -2.22285190      -0.01269627      -0.01918276       0.00282006      -0.11689894
C       -0.27674859      -0.58431091      -2.37187443       0.00061782       0.02035249      -0.00532049      -0.04840144
C       -0.95914369       0.57155533      -2.75463546       0.01359665       0.01389147      -0.00939150      -0.04023441
C       -1.62508679       0.63162318      -3.97233656      -0.01834109      -0.01711964       0.00771079       0.04250172
C       -2.41109178       1.85003633      -4.38003077       0.01345758      -0.01312186      -0.00344066       0.48474796
F       -2.26408462       2.15670423      -5.67290483       0.00530269      -0.00172060       0.00712570      -0.19144913
F       -2.06598822       2.94641580      -3.68388358       0.01683105      -0.02464684       0.00936847      -0.20896265
F       -3.73089691       1.67771840      -4.17318673       0.00370108       0.01290225       0.00494848      -0.20419427
N       -1.68071663      -0.39247692      -4.81969329       0.00725668       0.01897762      -0.01423421      -0.19783435
C       -1.04286231      -1.48429497      -4.49692071      -0.01900372       0.00064195       0.00683802       0.04002524
C       -0.32705387      -1.64132699      -3.29736636       0.01886522       0.01454308      -0.01321366       0.12653238
O        0.22289687      -2.88954775      -3.19746063       0.02024485      -0.00355564      -0.00745667      -0.22145828
C        1.07847155      -3.37568002      -2.28595936       0.01582051      -0.00574068      -0.00965609       0.21147364
C        1.55996876      -4.64873390      -2.59326499      -0.00393068       0.01013767      -0.00911552      -0.06882136
C        2.51777263      -5.22904010      -1.78922864      -0.00710502       0.01111559      -0.00986952      -0.02505993
C        2.97223985      -4.50040285      -0.69030047      -0.03071602      -0.02417668       0.02558610      -0.07265434
C        2.41805585      -3.26770069      -0.42321408      -0.00769338       0.00258531       0.01929879       0.21930605
N        1.45592361      -2.69286394      -1.18142283       0.00411672       0.01082488       0.00548148      -0.18839870
O        2.95887835      -2.60349523       0.63458492       0.02998986       0.02165961      -0.00054338      -0.25020376
C        2.16192237      -2.14727572       1.65783030      -0.02143552       0.01121365      -0.01362358       0.14108423
C        2.63424252      -2.40887726       2.95108059       0.00512378       0.01793266      -0.01840729       0.04086708
N        1.94020085      -2.13849282       4.02806557      -0.02695974      -0.01411917      -0.01696998      -0.19082035
C        0.74504996      -1.59660254       3.86840691      -0.02085869      -0.00985202       0.01463133       0.05163860
C       -0.08214196      -1.38634850       5.11280768       0.00975757       0.00312421      -0.00343529       0.48445086
F       -0.08818215      -0.10030553       5.51150966       0.01548672       0.00661397      -0.02161783      -0.20513994
F       -1.37404387      -1.70916817       4.90311343       0.01434620       0.01812854      -0.01987569      -0.21070497
F        0.32974930      -2.11335726       6.14964051       0.01040454       0.02485987      -0.00867235      -0.18461701
C        0.23250183      -1.22021951       2.63320872      -0.01032328       0.01230734       0.03240166      -0.03874223
C        0.96076836      -1.46266402       1.47017379      -0.04292884       0.00809375       0.02225480      -0.04979511
H       -1.87677292      -4.40792148       0.88948053      -0.01156154       0.00708629       0.04466559       0.04695009
H       -3.54435676      -4.52073550       0.31745736      -0.03182704       0.02188714       0.02244671       0.05699635
H       -2.28092364      -5.46896035      -0.46031659       0.01060300      -0.02825387      -0.00715703       0.05727306
H       -1.14916117      -3.40971806      -1.20665824      -0.01194981       0.02198055      -0.01004678       0.05827335
H       -2.91529045      -2.64625957      -2.89296420       0.01337349      -0.00251813       0.00860880       0.04769590
H       -4.06869230      -3.69927419      -2.07974166      -0.00326805      -0.00805694       0.01698854       0.05817470
H       -2.63805255      -4.38737137      -2.83659559       0.01311773      -0.00731352      -0.01048119       0.05602456
H        1.28063739       3.55472150       2.01989449      -0.02827266      -0.00074200      -0.01027599       0.08278359
H       -1.92157873       5.34900057       1.87475139      -0.01177259       0.00327715      -0.01722370       0.03884199
H       -2.61292265       5.51437686       3.49049345       0.01206948       0.00786867       0.00284056       0.04570796
H       -3.15473704       4.21651638       2.43198298      -0.01316366       0.00033728      -0.02890342       0.04404158
H       -0.97440640       2.45099667       4.91220158       0.01194279       0.00683873      -0.00235151       0.04402548
H       -2.61129043       2.55558298       4.26948229       0.00219955       0.00844586       0.01548683       0.04318243
H       -1.99704151       3.83428042       5.30755284       0.00975486       0.00808378       0.02308170       0.04637253
H        0.37410328       5.36885923       2.93973200      -0.00964465      -0.00297655       0.01057689       0.04248662
H       -0.38061411       5.47049966       4.52621048       0.00553153       0.01925459       0.00420602       0.04467223
H        0.77099887       4.18346085       4.19744893       0.01410375      -0.00899691      -0.00737711       0.04170069
H       -2.73603851       1.96821012       2.18243794       0.02567599       0.01399249      -0.00342825       0.07676946
H       -6.32713990       0.58773720       1.67624622      -0.00283134      -0.00163098      -0.02084338       0.06893660
H       -5.28353864      -3.04300144      -0.37456093       0.01261792      -0.02750199       0.00518590       0.05711871
H        4.51235877       5.31921817       0.97803730      -0.00256508       0.02625540       0.01720330       0.06682353
H        5.86669766       2.46975888      -1.94143314      -0.00912750      -0.01217750       0.00162300       0.05341835
H        4.98980331       0.68013945      -2.64941786      -0.01736758      -0.02502556      -0.02047079       0.05351528
H        2.12612581       0.02904742      -3.48305502       0.01564944      -0.00861621      -0.01335427       0.05298959
H        3.53386150      -0.06037578      -4.55557818      -0.00946763      -0.00175731       0.02930257       0.05619120
H        3.03755082       1.49215674      -3.87737434      -0.03644451      -0.02417779      -0.00609660       0.04741843
H        4.85451250      -1.43459792      -1.30448913      -0.01050525       0.00842426      -0.00788552       0.05040904
H        3.35470332      -1.82497045      -2.14768546       0.00345718      -0.00401551      -0.03846770       0.05654823
H        4.85963653      -1.69987923      -3.05227291       0.00261277       0.01061362       0.01763922       0.05105555
H       -0.98091441       1.44165968      -2.11510469      -0.00219589      -0.00361575       0.03189741       0.07223441
H       -1.09336352      -2.31156402      -5.19114437      -0.00026626       0.03477656      -0.00336007       0.07420652
H        1.18106724      -5.13296366      -3.47742485       0.00058700       0.00739221      -0.00262562       0.06932270
H        2.91071107      -6.20885974      -2.00125068      -0.00366862       0.01285220      -0.01708053       0.06250379
H        3.73602671      -4.87136641      -0.02969629       0.01840511      -0.03263803      -0.01031559       0.06779264
H        3.60263483      -2.86405675       3.09756191       0.00779793      -0.02112735      -0.03137986       0.07613013
H       -0.73024059      -0.73485164       2.61447180       0.00347163      -0.02780174       0.00084406       0.06335064
