107
Properties=species:S:1:pos:R:3:forces:R:3:charge:R:1 energy=-5830.475898105571 free_energy=-5830.475898105571 dipole="0.5029892065844545 2.046710953519918 -1.159300302789459" pbc="F F F"
C        4.36972698       3.39573244       0.07601373      -0.02131312       0.00826242       0.00910891      -0.11701204
C        3.36929109       2.54263189       0.84969221      -0.01967675      -0.01717838      -0.00437050       0.04332099
C        3.65948960       2.50246465       2.35051133       0.01837164      -0.01079563      -0.00203602      -0.11445669
N        3.28795969       1.19086551       0.32627355      -0.02029712      -0.01026049      -0.00152936      -0.01558758
C        2.11506048       0.59374056      -0.01070150      -0.01231462       0.00442485      -0.00958733      -0.01259714
Ir       0.02049740       0.94862612      -0.03185124      -0.00096383       0.00601528       0.01297242      -0.01816147
C       -1.98579260       0.38001441       0.16635357       0.00583253       0.01172884      -0.02229913       0.01564152
N       -2.15500875      -0.97216316       0.03562135      -0.00207161      -0.00182762       0.02787579       0.02450318
C       -1.03485775      -1.75762886      -0.24288409      -0.01430568       0.00056093       0.00311950       0.06313674
C       -1.01383812      -3.07498565      -0.66803194       0.00781364      -0.00311401       0.04011543      -0.05014390
C        0.20414103      -3.65824149      -1.01106251      -0.00322005      -0.00422534      -0.01653776       0.02007789
C        0.27277464      -5.05580057      -1.60133710       0.02412210      -0.03240151       0.01249429       0.02791533
C       -1.09565414      -5.73971477      -1.65314610       0.00203592       0.00098723      -0.00150173      -0.11772872
C        0.80961012      -4.93120692      -3.03553446       0.00245314      -0.02405380       0.01218265      -0.11372769
C        1.21383737      -5.92419667      -0.75777259       0.03215930      -0.02560355       0.02423107      -0.11194557
C        1.39137745      -2.92482796      -0.88720629      -0.00159706      -0.00693433       0.03647968      -0.05000022
C        1.34190409      -1.61399107      -0.45341664       0.00198697       0.00679063      -0.00057487       0.05665064
C        0.13082293      -1.02564788      -0.12738226      -0.00274292       0.00481271      -0.01056068      -0.05953370
N        2.41289657      -0.71794333      -0.29445618       0.01153269       0.00400010      -0.02190246      -0.00145944
C        3.74839027      -0.93922283      -0.17452493       0.01183434      -0.00596357       0.00843969       0.12913152
N        4.40413857      -2.07282168      -0.38937808      -0.01341648      -0.02812783       0.02297288      -0.25101715
C        5.71231501      -2.01603674      -0.17369958      -0.00767106      -0.00332277      -0.01269372       0.05572829
C        6.37386272      -0.87046310       0.25032689      -0.01073043      -0.00997266       0.01304876      -0.05082441
C        7.85181835      -0.87049672       0.47954114       0.01187384      -0.00704673      -0.01060909       0.48663801
F        8.16881089      -0.70027705       1.77949474      -0.00528312       0.00438054      -0.00671119      -0.21173865
F        8.45720114      -1.99512073       0.08489587       0.00227002      -0.02710382       0.01181900      -0.20383515
F        8.46189523       0.13805053      -0.17650820       0.00394333       0.02413525       0.01000285      -0.21321183
C        5.68349677       0.32752857       0.48784824       0.01069071       0.01358751      -0.01251202      -0.04251627
C        4.31725632       0.28565515       0.24491344       0.00452196       0.01386396      -0.01444154       0.03239060
C       -3.45023142      -1.31355464       0.26094818      -0.00448006      -0.01039247       0.00280553       0.13080849
N       -3.98083348      -2.52692573       0.26296843       0.00019518      -0.01612574      -0.00440008      -0.22645382
C       -5.26471962      -2.58126753       0.57766444      -0.00047046       0.00440659       0.00321463       0.05766378
C       -6.02953933      -1.45975589       0.89041490      -0.00777256      -0.01519263       0.01535870      -0.04692590
C       -7.47563321      -1.63379268       1.24366793       0.01159882       0.00201051      -0.00582814       0.48631194
F       -7.91839212      -0.68640158       2.08914607       0.00281288      -0.00346097      -0.01976206      -0.20842165
F       -8.28075840      -1.56908707       0.16350510       0.00826248       0.00913144       0.01175240      -0.20942167
F       -7.72737355      -2.81407809       1.82699618      -0.02235933       0.02526591      -0.00847897      -0.20405120
C       -5.47568626      -0.17509875       0.87892881      -0.04022030      -0.00268381       0.01066366      -0.03427450
C       -4.12902762      -0.10742690       0.55427230      -0.01459529      -0.01816068       0.01372078       0.03404311
N       -3.19402283       0.89643560       0.47676142      -0.00159985      -0.01829424      -0.00658544      -0.00214745
C       -3.43411142       2.31378880       0.66250868       0.02241734      -0.00734966      -0.00184474       0.03785072
C       -4.39551427       2.82665358      -0.40501292      -0.00591632       0.01039353       0.01564671      -0.11768151
C       -3.91513912       2.59806955       2.08387294      -0.00360938       0.01323615      -0.00924390      -0.11743496
C       -0.13556502       1.42832899       1.99080209      -0.02181373      -0.01010902       0.00517753      -0.05095752
C       -0.10003779       0.43548679       2.96993456       0.02254716      -0.01029978       0.00333112      -0.04183229
C       -0.36131676       0.74910185       4.29767135      -0.00878503       0.00479649      -0.00221386       0.04810777
C       -0.28893554      -0.31566651       5.36085004      -0.01278160       0.01718790      -0.00169223       0.48421259
F        0.96731412      -0.46129080       5.82920591      -0.03311027      -0.02962423       0.00378411      -0.20682037
F       -0.65442713      -1.52281575       4.89273901       0.02927557       0.00632407       0.01449031      -0.20932514
F       -1.06802065      -0.05791886       6.41166560       0.02835835      -0.02065672       0.01001647      -0.18708134
N       -0.66736223       1.96803027       4.71221310      -0.02450860       0.00743096      -0.00123460      -0.19801078
C       -0.70552535       2.92314410       3.81682689       0.04426835       0.01070652      -0.00146001       0.03828983
C       -0.43996097       2.71176453       2.45677330      -0.00586216       0.01203701      -0.00535273       0.13490083
O       -0.54533118       3.85843988       1.70776345       0.00853619      -0.00795026      -0.01860330      -0.24455357
C        0.10762216       4.11560714       0.54761039      -0.03285045       0.01267186      -0.00774149       0.21385653
C        0.59785797       5.40383883       0.44359401       0.02403876      -0.00961656       0.03755569      -0.07479879
C        1.29849214       5.77872011      -0.69934730      -0.01012718      -0.00033645       0.00859249      -0.03042545
C        1.44020676       4.83910206      -1.70300152      -0.01610877      -0.00297391       0.00433267      -0.06832950
C        0.87039322       3.58155612      -1.55482505       0.01250375      -0.00864246       0.02031799       0.21004303
N        0.21338024       3.18753362      -0.43071872       0.00670510      -0.00842483       0.02159496      -0.20048234
O        1.05356576       2.77284891      -2.61968719       0.00996927       0.03691749      -0.01182410      -0.22546859
C        0.27603245       1.70468451      -2.94725049       0.00088203       0.03445103      -0.01438290       0.13603497
C        0.21024088       1.39396075      -4.31479943       0.01645953       0.01379372      -0.01120708      -0.03904722
C       -0.61351709       0.38038006      -4.75434520       0.01403820      -0.00619708      -0.01153698      -0.03891852
C       -1.37983177      -0.27916625      -3.79802984       0.01524435      -0.00906229       0.00407306       0.03973601
C       -2.37777433      -1.34818889      -4.13408377       0.00858043      -0.00475632       0.00961294       0.48473224
F       -1.85905037      -2.58844863      -4.02795524      -0.00633838      -0.00845736       0.01376825      -0.20734667
F       -2.84126347      -1.25087272      -5.39071657       0.00872609       0.02003908       0.01960614      -0.20696274
F       -3.44305083      -1.31539518      -3.32131874      -0.00328543      -0.01972516      -0.01871396      -0.19942107
N       -1.24156464      -0.02245220      -2.50290854      -0.00186070       0.01217450       0.00377193      -0.19388832
C       -0.41952172       0.88237374      -2.04601739       0.00023324      -0.00280148       0.02906953       0.02926829
H        4.11033191       3.42000696      -0.97928944      -0.00623965      -0.02709246      -0.02510078       0.04687263
H        4.33898630       4.41209408       0.45795240       0.00250645       0.01804840      -0.00104515       0.05386686
H        5.38287428       3.02073650       0.17642048      -0.00912758       0.02543454       0.00223861       0.05734142
H        2.37320272       2.96812657       0.70618678      -0.00098992       0.01641810       0.02886910       0.05460902
H        2.94240376       1.85335354       2.85181777       0.02386790       0.02236300      -0.01047743       0.04601199
H        3.56759230       3.50156431       2.76869870       0.02131016      -0.01633924      -0.01387686       0.05413568
H        4.66197607       2.13202976       2.55028124      -0.02025668       0.00115898      -0.01085881       0.05586130
H       -1.94797414      -3.60235862      -0.74424210       0.00815269      -0.00258233      -0.01490722       0.08520360
H       -1.50885795      -5.86280660      -0.65496079       0.00082937       0.01216379       0.00105567       0.04248203
H       -0.99046395      -6.72736897      -2.09693950       0.01546930       0.00525675       0.00179055       0.04371092
H       -1.79361592      -5.17113978      -2.26135258       0.01382401      -0.01052814      -0.03185851       0.04806746
H        1.81673486      -4.52419144      -3.04849663       0.00137904       0.01104536       0.01278586       0.03885390
H        0.83321420      -5.90822270      -3.51128298      -0.01246429      -0.01916228      -0.00384689       0.04565697
H        0.16462958      -4.27698672      -3.61690284      -0.00935396      -0.00989669      -0.00537242       0.04435668
H        0.83554143      -6.00475961       0.25909689       0.00781592      -0.00252249      -0.00177576       0.03886346
H        2.21531064      -5.50552080      -0.71670571      -0.00090767      -0.01346429      -0.00484161       0.04216511
H        1.28044607      -6.92455810      -1.18031837      -0.01000806       0.01748942      -0.00135353       0.04423539
H        2.35149121      -3.34873496      -1.13271533      -0.02212012      -0.01514196      -0.02639843       0.07119285
H        6.25041212      -2.93597834      -0.34675871       0.01496418       0.00731529      -0.01169394       0.06554275
H        6.20965213       1.19873772       0.83740914       0.02639710      -0.00259876       0.00375059       0.05084182
H       -5.70391341      -3.56805373       0.60252341       0.02217229       0.00643876      -0.03169828       0.07137333
H       -6.07882883       0.67899508       1.13473871      -0.01951941       0.02087227      -0.00444977       0.05994038
H       -2.46056227       2.78977832       0.51228437       0.01075769       0.02984345       0.00008751       0.07155159
H       -5.36639634       2.34888171      -0.31518695      -0.02397089       0.03243135      -0.01822417       0.05561277
H       -4.52083409       3.90003059      -0.29761294      -0.01929547       0.00945500      -0.00545693       0.05818056
H       -3.99889149       2.61874067      -1.39633040      -0.00018219      -0.00259031       0.00667349       0.04914131
H       -3.28637164       2.07966625       2.80533251      -0.02264157       0.01589554      -0.01354111       0.04564726
H       -4.94373792       2.28085101       2.22744034       0.01090383      -0.00279373       0.00711671       0.05718687
H       -3.85437503       3.66405524       2.28168759      -0.00598577       0.01466076       0.00197446       0.05879826
H        0.11367904      -0.58966872       2.70762218       0.02031518      -0.03595452       0.00908047       0.06905580
H       -0.95780287       3.91430804       4.16524695      -0.00721905      -0.01642300       0.00640790       0.07407958
H        0.44864793       6.07929842       1.26807418      -0.01270057       0.00543166       0.00647484       0.06499521
H        1.71470148       6.76625268      -0.79520258      -0.00102222       0.01625293      -0.00870481       0.05771326
H        1.96149695       5.05997382      -2.61873948      -0.00140126      -0.01935194      -0.02159319       0.06447705
H        0.80491188       1.97250111      -5.00287079       0.01310476       0.02738422      -0.02337343       0.06831593
H       -0.68110060       0.12559892      -5.79878503      -0.04139908      -0.00621630      -0.01500333       0.06904462
