102
Properties=species:S:1:pos:R:3:forces:R:3:charge:R:1 energy=-4767.028787991519 free_energy=-4767.028787991519 dipole="1.4366234678607142 -0.24282217669196163 0.12034917308166038" pbc="F F F"
C       -1.65552075      -3.11031322      -3.99827348       0.00039473      -0.00494383       0.01302089      -0.11471962
C       -0.70374571      -2.19169549      -3.23341599       0.00021874      -0.00956127      -0.01222609       0.03407487
C        0.74461708      -2.37687003      -3.68126009      -0.00976967       0.00803789       0.00994799      -0.11219194
N       -1.11306792      -0.81045609      -3.38753032       0.01575767      -0.01612953      -0.01269062       0.01442408
C       -1.15384317      -0.14796387      -4.58789848       0.00498545      -0.01188097       0.00344784      -0.01429813
C       -1.62640727       1.09981133      -4.35574480       0.00728627      -0.01295028      -0.02359448      -0.01912676
N       -1.86694968       1.17745107      -3.01346518      -0.00034265      -0.01338412      -0.01225641       0.02738236
C       -1.54916408      -0.00508955      -2.39350502       0.00998569      -0.02245611      -0.00767873       0.01176131
Ir      -1.68398577       0.02244440      -0.28867641       0.01979842      -0.01999626       0.02036355      -0.03093280
C       -3.27385968       0.41635328       1.18191170      -0.00279414      -0.03550525       0.00858351      -0.00352822
N       -3.73901895       1.69713598       1.08817646       0.00750553      -0.02040407       0.00834763       0.03075427
C       -4.54898228       1.99452533       2.14671943      -0.00172339       0.00417163       0.01984276      -0.01757370
C       -4.58659402       0.88370933       2.92116107      -0.00315030      -0.00039964       0.01041526      -0.01346648
N       -3.80379087      -0.06680300       2.31918764      -0.00785487      -0.00698423       0.01545615       0.02310497
C       -3.58694607      -1.39582745       2.86051094      -0.00778760       0.00453136      -0.00253956       0.02590397
C       -2.95103508      -1.30786342       4.24597518       0.00666940       0.00528198      -0.01060781      -0.11120116
C       -4.89257277      -2.18443017       2.89800016      -0.00387553       0.00399771      -0.00629448      -0.11685269
C       -3.41743151       2.42745997      -0.05726064      -0.01533282       0.01217278      -0.00393561       0.05714614
C       -4.00417051       3.61916852      -0.44668863       0.01301945       0.01769977      -0.01295148      -0.04874554
C       -3.73154750       4.10210627      -1.72606129      -0.01240873       0.02227137       0.00320013      -0.03957852
C       -4.32408728       5.40167243      -2.17652482      -0.00177482      -0.02001812       0.00169815       0.48489116
F       -5.40093635       5.22837002      -2.97713785      -0.00014005       0.00139203       0.00927466      -0.21703268
F       -3.46199923       6.14523510      -2.89476281      -0.00233203      -0.02033058       0.01124218      -0.21155165
F       -4.74032246       6.17759807      -1.16452867       0.00113798      -0.01365887      -0.01653450      -0.20834646
C       -3.01034614       3.34983607      -2.65112459      -0.00903030       0.01671014       0.01165003      -0.04691857
C       -2.44183290       2.16469461      -2.21938377      -0.01821774      -0.00026925      -0.02133381       0.05311115
C       -2.51599092       1.74454600      -0.88125095      -0.01336650       0.01791565      -0.01697168      -0.06019429
C       -0.32220349       1.36016803       0.90519068       0.00907538       0.03493710      -0.02126966      -0.03894966
C       -0.70090584       1.69057148       2.20966324       0.01235563      -0.01751928      -0.00977949      -0.03516251
C        0.04396121       2.52492561       3.03315157      -0.01039011       0.00679698      -0.01505685      -0.03869175
C        1.21879364       3.09135523       2.58240635      -0.00868222       0.00183240      -0.00618090      -0.04165107
C        1.63230972       2.77323952       1.30152029      -0.01523992       0.01682695      -0.00857918      -0.00429952
C        0.86846777       1.93343582       0.46995907       0.01885775      -0.00234810      -0.00725590       0.00175079
C        1.68337759       1.62437457      -0.79146760      -0.01952459      -0.00248058       0.03944960       0.01186942
C        0.99748605       1.87036159      -2.13693599       0.00972526       0.01167196       0.01672900      -0.10301006
C        2.89786962       2.50254913      -0.61758036      -0.01207632       0.00141784       0.00077124      -0.00250686
C        3.96320306       2.70108814      -1.47341987      -0.00844929      -0.00716409      -0.00027292      -0.03656896
C        5.00031536       3.53332844      -1.07402814      -0.00575918      -0.00104304       0.00907782      -0.03662253
C        4.97129482       4.15466847       0.16497770      -0.01044089       0.02278090       0.00152572      -0.03511486
C        3.89734932       3.97686377       1.02103838       0.00107219      -0.01532713       0.00927829      -0.03588629
C        2.85859301       3.15079216       0.62175982      -0.01288690      -0.00078360       0.00141516       0.00132378
C        1.99627114       0.16189165      -0.53221669       0.00099722       0.00376448       0.02968632       0.09481231
C        3.25824368      -0.23494615      -0.13986739       0.00019757       0.00227408       0.03444281      -0.08826790
C        3.46146940      -1.51808890       0.39662260      -0.00231672       0.00447062       0.00575489       0.07403964
N        4.66528732      -1.87656417       0.90810550       0.00107458       0.01697316       0.00462758      -0.09075046
C        5.70767577      -0.91266032       1.21930217       0.00081823       0.00493923      -0.00858732       0.00235765
C        6.51124108      -1.56782600       2.34199939      -0.00037836       0.01127917      -0.01258814      -0.06082480
C        6.33840533      -3.05417144       2.04889081      -0.00690058      -0.00330288      -0.00253146      -0.06123121
C        4.87932319      -3.12729928       1.61083421      -0.01116994       0.01188618      -0.02923229       0.00367012
C        2.34905072      -2.36874391       0.41691942       0.01066867      -0.01662184      -0.00733089      -0.08613544
C        1.12367304      -1.89439968      -0.02596485       0.01227932       0.00354609       0.00065435       0.08344813
N        0.94628301      -0.65645898      -0.50207020       0.00164351       0.00267770      -0.00012670      -0.19172415
C       -0.09681466      -2.65046248       0.15176095       0.02183129      -0.00972273      -0.02385073       0.02933712
C       -0.36655521      -4.00539687       0.33683697      -0.01774117       0.00152075       0.01049072      -0.08248273
C       -1.75047169      -4.03399189       0.51496512      -0.01869522       0.00763854      -0.00659393       0.01026289
C       -2.62827897      -5.19996963       0.76156482       0.01483067      -0.01249185      -0.00441026       0.48193603
F       -3.55654456      -5.39010486      -0.19963118       0.01231916       0.01275206       0.00047572      -0.21773178
F       -1.93520302      -6.35147205       0.83614743       0.01537809      -0.02736731      -0.00132964      -0.22038973
F       -3.32360130      -5.11504371       1.91877306       0.02698428       0.02458070      -0.01394192      -0.22164657
N       -2.25813761      -2.79692540       0.44991510      -0.00273591       0.01872116       0.00384195      -0.22623705
N       -1.26022095      -1.96185150       0.23002861       0.00176096       0.00514805      -0.00856778      -0.05165832
H       -1.58401712      -2.94827429      -5.07226157      -0.00191970       0.00847054       0.02422266       0.04436535
H       -1.40903370      -4.14738420      -3.79012609       0.00762954      -0.00487150       0.00226842       0.05509976
H       -2.68136689      -2.93541775      -3.68309372       0.00115449       0.00775232       0.00200442       0.05252827
H       -0.77156691      -2.41067369      -2.16580431      -0.01954894       0.00632544      -0.02637654       0.07945149
H        0.85664188      -2.18471176      -4.74652856       0.00135163       0.00271436       0.01849152       0.04457497
H        1.05690059      -3.39834321      -3.48139970       0.00510949       0.01764462       0.00034347       0.05177205
H        1.39601035      -1.70335522      -3.12882368      -0.00051360      -0.00322049      -0.00072980       0.04751881
H       -0.85508422      -0.60386020      -5.50986265      -0.00831974       0.01206758       0.03452492       0.05536545
H       -1.80456935       1.90866423      -5.03315146       0.00191880       0.00327934       0.00925241       0.05680870
H       -5.02428882       2.94363562       2.27838905       0.00393435       0.01761231      -0.01222866       0.05359963
H       -5.11039254       0.70319366       3.83691751       0.00833665       0.01213996      -0.00899721       0.05440858
H       -2.90680162      -1.89761512       2.16726658      -0.01616568       0.00855450       0.00041777       0.09639578
H       -3.64098818      -0.87928400       4.97077978       0.01121948       0.00905754      -0.00469590       0.04127205
H       -2.68251722      -2.30538898       4.58154732       0.00506404       0.00091730      -0.00465988       0.05349127
H       -2.04966371      -0.69968885       4.21628862       0.01665228      -0.00351306      -0.00645102       0.04480080
H       -5.60335011      -1.74979707       3.59818582      -0.00440931       0.00709056      -0.00844135       0.03947327
H       -5.34036061      -2.21777586       1.90865405      -0.00001493       0.02168196      -0.01212087       0.05278295
H       -4.67920953      -3.20404224       3.20401988      -0.02136191      -0.00331500       0.00393306       0.06459782
H       -4.66639421       4.16966568       0.20338660       0.00621431      -0.01493998      -0.00735383       0.05516525
H       -2.92201035       3.69398370      -3.67081384      -0.00069220      -0.01788248       0.02507245       0.05256969
H       -1.59445596       1.26995648       2.64426470       0.00284897       0.00175910       0.00763722       0.02389857
H       -0.30292374       2.71919739       4.03905043      -0.00274816       0.01110659      -0.00618000       0.02087441
H        1.81140310       3.73767955       3.21269101      -0.00908114       0.00072511       0.01012479       0.02564512
H        1.66196007       2.40850057      -2.80821886       0.04464293       0.00371549      -0.00022602       0.04101067
H        0.10372294       2.46811816      -1.99468634       0.00277533       0.01875236       0.01262098       0.04997050
H        0.73644666       0.92524709      -2.59795725      -0.02378179       0.01444789       0.00547314       0.04696469
H        4.00613961       2.21060442      -2.43553233      -0.01248445      -0.02643345      -0.00595796       0.02433755
H        5.84164436       3.69627169      -1.73235210      -0.00913134      -0.01713600      -0.00013874       0.02606777
H        5.79351154       4.78805816       0.46421949       0.00755401       0.01607803      -0.01170566       0.02688049
H        3.87630388       4.47096700       1.98099591      -0.01526687      -0.00017133      -0.00052484       0.02897984
H        4.07283844       0.46487552      -0.19971177       0.01162165      -0.01212629       0.00552382       0.03197815
H        6.33702813      -0.74037510       0.33666708      -0.01234365      -0.00455721       0.00072801       0.04030704
H        5.28371106       0.04559139       1.53343975      -0.01128949      -0.01647156      -0.01052279       0.04405951
H        6.06853166      -1.32500771       3.30881935      -0.00226531       0.00003198      -0.00153288       0.04364251
H        7.55061827      -1.24845119       2.34604454       0.01320909      -0.01322887      -0.00893322       0.04373575
H        6.99342608      -3.35018526       1.22934960      -0.00321705      -0.01825977      -0.01047725       0.04598278
H        6.54294913      -3.68562339       2.90960372       0.00846025      -0.01435165       0.01623996       0.04438749
H        4.21675985      -3.19741124       2.48578060       0.00519099      -0.02917196      -0.02615614       0.03765784
H        4.68345649      -3.97581944       0.95131100      -0.00431439      -0.02020426       0.00063176       0.04558870
H        2.40413986      -3.36348386       0.82411853       0.01125481      -0.00467108       0.03025866       0.03190642
H        0.30337506      -4.84028257       0.33223355       0.01738593       0.02502739      -0.00296955       0.01652354
