94
Properties=species:S:1:pos:R:3:forces:R:3:charge:R:1 energy=-4550.999388133821 free_energy=-4550.999388133821 dipole="1.7492840826671971 0.35128569524990727 0.3291483421651174" pbc="F F F"
C        9.11093313      16.30119769      24.55453931      -0.00285145      -0.01149051      -0.00218523       0.03852737
O        8.75310416      15.10499893      23.90401507      -0.00810566       0.01203346      -0.01667008      -0.26601903
C        7.77635522      14.33415691      24.44496023      -0.00098607      -0.00206282      -0.01498212       0.15514349
C        7.40156779      13.20697669      23.70899117      -0.00415241      -0.00252782       0.00913488      -0.07611767
C        6.43544790      12.37407941      24.24466236      -0.01920605       0.01224988       0.01019704       0.08982609
N        5.82347911      12.63075026      25.39293088      -0.02027071       0.00946701      -0.00152132      -0.24151202
C        6.12443361      13.72450070      26.06233051       0.00789582      -0.01177954      -0.00963105       0.10120037
C        7.12629187      14.59659334      25.64700840       0.00600622       0.01531983      -0.00588550      -0.08971638
C        5.24609916      14.01123581      27.27518106      -0.00459775       0.00521434      -0.02505739       0.01350999
C        6.05080939      14.02549048      28.57317046      -0.01082622       0.00822394      -0.01142877      -0.09877831
C        4.50436321      15.30390211      26.99407701      -0.02053168      -0.01212986       0.01367698      -0.00039972
C        4.96644456      16.60285319      26.99248267       0.00434665      -0.00383582      -0.01943195      -0.03561638
C        4.10043213      17.62550342      26.62676833      -0.01089578       0.00144489       0.01719294      -0.03537582
C        2.79109519      17.35238481      26.26523927       0.00502915       0.00018444       0.01395821      -0.03302633
C        2.30815805      16.05436593      26.29497809      -0.00682949      -0.01178485       0.01873407      -0.03375168
C        3.16448143      15.03401909      26.67435604       0.02183201      -0.01289755      -0.00527028       0.00441332
C        2.91566434      13.61325618      26.85102167       0.00200069       0.00293291       0.00206746       0.00431602
C        1.76026226      12.86665512      26.69066797       0.00509086       0.01322172      -0.00191442      -0.03706527
C        1.78876532      11.50854629      26.95403207       0.01292859       0.00996263       0.00208779      -0.03057640
C        2.96230421      10.90505793      27.39669530       0.00043022      -0.00404083      -0.00794763      -0.02414012
C        4.09424863      11.66733425      27.54279989      -0.00579433       0.01116339       0.00518717      -0.06543545
C        4.11442388      13.00295967      27.27667514      -0.00243508       0.00814897      -0.01702410       0.01936358
Ir       5.13925630       8.40826981      24.12185189       0.01418099       0.02318251      -0.02016959       0.04088565
C        4.77393153       7.82045672      21.31981103       0.00424598       0.00534222      -0.01184397       0.19637845
N        3.99358069       6.71325431      21.50714937       0.01843367       0.00215996       0.00577634      -0.01147860
C        4.20290697       5.85443455      20.45029241      -0.01233615       0.01241897      -0.01724541      -0.01620636
C        5.11813081       6.41367474      19.63884922      -0.00912656      -0.01967692       0.00062033      -0.01470711
N        5.49647485       7.62738859      20.17149844       0.00167213      -0.01220360      -0.00384623      -0.04963040
C        6.76856364       8.24722973      19.80357258       0.00543044      -0.01628246       0.00270042       0.04630896
C        6.62998014       9.59533072      19.10201809       0.00694641      -0.01489166      -0.00017017      -0.11935802
C        7.68811756       8.33456546      21.02068031       0.00168730      -0.00026943       0.00716344      -0.12084638
C        3.35109386       6.35801768      22.70967932       0.00093427      -0.01644139       0.00181967       0.05255933
C        2.28922447       5.46245689      22.69748922      -0.01165346       0.00256734       0.00219069      -0.04753624
C        1.76478917       5.02174259      23.90585764      -0.00828962       0.00754344       0.00313324      -0.04117865
C        0.62619721       4.05401246      23.86145632      -0.00114172      -0.00610023      -0.00453134       0.48498784
F        0.14938669       3.72450862      25.07054721      -0.00116379       0.00244137      -0.00199205      -0.21006079
F       -0.42406882       4.51914419      23.15555594      -0.00190989      -0.00447056       0.00503135      -0.21462840
F        0.96719912       2.88817257      23.26654058       0.00120105      -0.00576331      -0.00397249      -0.21970537
C        2.28833231       5.44983751      25.12463261       0.00304266       0.00967505      -0.00274218      -0.05009759
C        3.32229815       6.36320333      25.09445827      -0.00180401       0.00581942       0.01231724       0.05263657
C        3.89356988       6.85950203      23.89867678      -0.00943354      -0.01268138       0.00653783      -0.11961470
N        3.95343312       6.89038003      26.22840508      -0.00684472       0.01161429       0.00452841       0.01849063
C        3.79075099       6.66376226      27.56734669      -0.01055502      -0.00708419      -0.00457732      -0.02127243
C        4.69859902       7.44291992      28.20394529      -0.01105071      -0.00329253       0.00639322      -0.01671963
N        5.39751000       8.13757802      27.25064321      -0.01299855      -0.00158129       0.00549761       0.02091993
C        6.52570785       9.01611353      27.49068266      -0.00535177      -0.00660562       0.00314551       0.02453050
C        7.73145119       8.17606187      27.92216453      -0.00182755      -0.00439506      -0.00010078      -0.11813575
C        6.19545700      10.09546535      28.50677895       0.01612184       0.00688907      -0.00084135      -0.12902076
C        4.95499732       7.80370140      26.02035547       0.00182283      -0.00150639       0.00304295       0.01135798
N        6.00189060      10.03371059      24.24759532       0.00907637       0.00538616       0.00227882      -0.25055711
N        4.78312663       8.88513819      22.11516734      -0.03164240      -0.02725871       0.01777458      -0.18058168
C        4.79883805      10.17542736      21.64370188       0.00407246      -0.01160127      -0.00939261       0.02637734
C        3.86112440      10.50806549      20.50585812       0.01065315      -0.01550277      -0.00929926       0.47915438
F        3.58536334       9.49269342      19.66521667      -0.00421668      -0.00155571      -0.00479672      -0.21945744
F        4.29299799      11.51929031      19.72929689      -0.00399760      -0.00113631       0.01445800      -0.21473097
F        2.66173052      10.90423428      20.97984648      -0.00569244       0.00483269       0.00307085      -0.21168852
C        5.35596902      11.23582431      22.29163538       0.00397592      -0.01116377       0.00834870      -0.07467258
C        5.97259556      11.11623544      23.59394724       0.00576212       0.00096603       0.00724414       0.09400811
H        9.85311183      16.77452360      23.91352031       0.00128008      -0.00679515       0.00698022       0.06295351
H        9.55344917      16.10709886      25.53683283      -0.00412052       0.00090598       0.00759794       0.04094176
H        8.25038157      16.96853795      24.66475782       0.00082528       0.00332328       0.00499482       0.04280900
H        7.86953510      13.00606282      22.75902750       0.01594978      -0.00454247       0.01697424       0.04658440
H        7.37363089      15.46323384      26.23441153       0.00465155       0.00506957       0.00636214       0.03679432
H        6.51541704      13.05603061      28.72766794       0.00740138       0.00078861       0.00678954       0.04691976
H        5.39151235      14.23787764      29.41167392      -0.00288476       0.00389068       0.01284617       0.04226757
H        6.82697380      14.78581354      28.53792350       0.00329957       0.00530498       0.00604652       0.03846698
H        5.97989923      16.84392218      27.27985361      -0.01230939      -0.00567235       0.00387211       0.02218249
H        4.45406548      18.64634184      26.62703535      -0.00297860       0.00650621      -0.00786916       0.02714775
H        2.13763447      18.16083893      25.97120149       0.00487553       0.00309091      -0.00029063       0.02978233
H        1.28309244      15.84203139      26.03079865      -0.00403470       0.00581601       0.00803025       0.03256955
H        0.84670953      13.33820188      26.35871149       0.00351443       0.00556933      -0.00913713       0.03436537
H        0.90204414      10.90635943      26.81950930      -0.01832019       0.01440204       0.00462847       0.03337386
H        2.97088055       9.84755396      27.61372351      -0.00207374      -0.02161230      -0.00751549       0.03303343
H        3.70609529       4.91003829      20.37728761      -0.00230593       0.01828706       0.01753491       0.06917932
H        5.53736643       6.04584822      18.72536081       0.00792766       0.01976307       0.00291558       0.06119869
H        7.20875664       7.54416130      19.08730941       0.00993434      -0.00480650      -0.01641091       0.05257062
H        7.56104784       9.82495766      18.59093265       0.01284913       0.00532848      -0.00296076       0.05250069
H        5.83375256       9.56673616      18.36303706      -0.01053287       0.00087460      -0.00014763       0.05614214
H        6.43214482      10.39000930      19.81370063       0.01451162       0.00780667      -0.00509619       0.05419421
H        7.81995777       7.35256391      21.47082611      -0.00087393      -0.00210591      -0.00691293       0.04829664
H        7.28476249       9.00461991      21.77668501       0.01208839       0.00189732      -0.00915575       0.07061895
H        8.66047804       8.70947074      20.71307559      -0.00705076       0.00119624      -0.00460943       0.05511104
H        1.85203291       5.11732101      21.77250585       0.00387694       0.00063202       0.00130353       0.04429489
H        1.87357314       5.07960530      26.04939434       0.01082315      -0.00023032      -0.00641650       0.04836471
H        3.06161739       5.98896683      27.96675316       0.01496271       0.00758765      -0.00249596       0.05451526
H        4.88654866       7.54405682      29.25288810       0.00619950       0.00403063      -0.00898105       0.05593504
H        6.73661224       9.49025777      26.52551612       0.00257331      -0.01779751      -0.01094133       0.09725657
H        8.61752712       8.80023910      27.98250010       0.00379549       0.02076197       0.01580316       0.05235254
H        7.91461891       7.39069287      27.19367651      -0.00493814      -0.01600739      -0.00902197       0.05011638
H        7.55960622       7.72131108      28.89570965      -0.00228372      -0.00451332      -0.00129157       0.04602228
H        7.07297456      10.70953771      28.68478943       0.02357668       0.00280487       0.00363879       0.04488410
H        5.85026354       9.68770380      29.45345073       0.00801187      -0.01649853       0.00381660       0.04182186
H        5.37259036      10.77829947      28.09019910       0.00333147       0.01085186      -0.00244069       0.10105874
H        5.22911093      12.22688011      21.88373142      -0.00785360       0.00769998       0.00072152       0.03789341
