102
Properties=species:S:1:pos:R:3:forces:R:3:charge:R:1 energy=-4700.726367104487 free_energy=-4700.726367104487 dipole="0.6941618958061259 -0.0940169941642968 -0.03456659729895767" pbc="F F F"
C       -2.40312492      -1.52799478      -4.36443303       0.00007285       0.00802020      -0.00810659      -0.11605450
C       -1.19641390      -1.68064129      -3.44269075      -0.00862649      -0.00677692       0.03687017       0.03421890
C       -0.01274097      -2.35038292      -4.13218575       0.00267736       0.00458445      -0.00822063      -0.11518566
N       -1.57100162      -2.42283175      -2.25457633      -0.01934550      -0.00290096       0.02281875       0.01789573
C       -1.76588270      -3.77756105      -2.20663231       0.00949185      -0.02215081      -0.00410353      -0.01404804
C       -2.10591144      -4.10514208      -0.93695474      -0.00289966      -0.00389709       0.00674468      -0.01817516
N       -2.12178700      -2.93826347      -0.22849043       0.01806677       0.01947517      -0.01733456       0.02818550
C       -1.79615832      -1.88060940      -1.04005073       0.00605728       0.04093032       0.00612491       0.01073797
Ir      -1.58721125      -0.02432023      -0.04668980       0.03558841       0.01068510       0.00459784      -0.02127657
C       -3.04037234       1.27532591       1.09075586       0.00490525       0.00887351       0.04848677      -0.00722129
N       -3.38600174       0.63494155       2.24991282       0.00042513       0.01199715       0.02869276       0.03375695
C       -4.04113724       1.47383345       3.10404610       0.00702599       0.00956951       0.00757445      -0.01702625
C       -4.11493755       2.66800565       2.47181303       0.00390700      -0.00393139       0.00472517      -0.01634292
N       -3.51103240       2.53210225       1.24798888      -0.00114237      -0.00024494       0.02996073       0.01825916
C       -3.55524320       3.60956688       0.27010885       0.00668809      -0.01607688       0.03095353       0.04461859
C       -2.15332282       4.05483144      -0.13150981       0.00096936      -0.00631824      -0.00278396      -0.11664468
C       -4.39744886       3.17554961      -0.92644261       0.02072056       0.00619841       0.00598849      -0.12960431
C       -3.14528826      -0.73353126       2.36881970       0.00851839       0.01778978       0.01458679       0.05833932
C       -3.67145411      -1.55762428       3.34707689      -0.02004677       0.01621759       0.00652141      -0.04804036
C       -3.52714715      -2.93370446       3.19706592      -0.02725665       0.01035283      -0.01429447      -0.03792850
C       -4.07906395      -3.85504016       4.23789580      -0.02660962      -0.01910573       0.00274155       0.48580137
F       -5.20642226      -4.47346430       3.82091915      -0.03417245      -0.03007753      -0.00061913      -0.21622413
F       -4.40286096      -3.23407575       5.38073128       0.01235247      -0.01647421       0.01980666      -0.20749873
F       -3.23009009      -4.84490413       4.56796000       0.02167065       0.00835840      -0.00691509      -0.21044626
C       -3.00627213      -3.48907266       2.03028643       0.00069952      -0.00754780      -0.00020822      -0.04509197
C       -2.49208626      -2.62766020       1.07812831       0.01942953      -0.02615217      -0.01628489       0.05492634
C       -2.41783465      -1.24425797       1.29442770      -0.01416978      -0.02400674       0.00760940      -0.05770416
C       -0.09421543       0.05794469       1.65469441      -0.01509249       0.00912207      -0.00709674      -0.04276290
C       -0.38349188       0.92821483       2.70954549       0.00046864      -0.00538936      -0.00486370      -0.03572707
C        0.32913913       0.94108825       3.90168628      -0.01330643       0.02222405      -0.00772240      -0.03850455
C        1.40884667       0.10255938       4.08987793      -0.02635851       0.00160183       0.01832804      -0.04091879
C        1.77415784      -0.71616274       3.03617132      -0.01058539       0.00707639       0.01298075      -0.00298848
C        1.01898533      -0.75671873       1.84740977      -0.00038193       0.02486020       0.00793631      -0.00068827
C        1.79950946      -1.57122016       0.81390677       0.02311450       0.01763130      -0.03218361       0.01302849
C        1.08413087      -2.74800293       0.16426250      -0.00463810       0.00926656       0.01505450      -0.10401478
C        2.99798783      -2.04335284       1.58965817       0.00075410      -0.02485669      -0.00854848      -0.00318952
C        4.04719516      -2.83121309       1.16282597       0.02570539       0.01356200      -0.00310037      -0.03517632
C        5.06777167      -3.12410089       2.05617469      -0.00117711       0.00209430       0.01242125      -0.03525011
C        5.02977977      -2.63788309       3.35427207       0.00320741       0.00250417       0.00586011      -0.03367355
C        3.97835453      -1.84601447       3.78754734       0.00991652       0.01518855       0.00424422      -0.03449795
C        2.95810074      -1.54867913       2.89721615      -0.00072994      -0.01422958      -0.00467921       0.00158861
C        2.13356852      -0.47781059      -0.17556589      -0.01885760       0.04024096      -0.01113111       0.09550195
C        3.37766093       0.13904868      -0.18669417       0.00149269       0.00213781       0.01061712      -0.06218101
C        3.57894944       1.29477334      -0.93317014      -0.00632292      -0.00865954      -0.00156752       0.02368190
C        4.87549961       2.08439729      -0.86982672      -0.01048247      -0.00658276      -0.00980628       0.02598255
C        5.59043278       1.98577091      -2.22345914      -0.00576288       0.00088040       0.00388539      -0.10478259
C        5.81418492       1.57196652       0.22841017      -0.00778802      -0.00198845      -0.01649163      -0.10751004
C        4.54711448       3.55144129      -0.55531801       0.00062652       0.00102910      -0.00697275      -0.10621992
C        2.50751769       1.74028206      -1.70032826      -0.01011397       0.01111651       0.00691218      -0.05644926
C        1.29008374       1.07006696      -1.63222688      -0.02123787       0.01412162      -0.00556092       0.08376003
N        1.10811117      -0.01228254      -0.87170054      -0.02683257       0.00250305      -0.02923607      -0.18765131
C        0.07367924       1.54238778      -2.25755485      -0.01223358      -0.01127207      -0.00990018       0.02855263
C       -0.20727224       2.28072925      -3.40435602       0.00572212      -0.00550720       0.00322424      -0.08083122
C       -1.60272293       2.33222809      -3.41783227       0.00392326      -0.00976352      -0.01754432       0.01049889
C       -2.48530226       3.02472510      -4.38296470       0.00115047       0.00471796       0.00562062       0.48179264
F       -3.73628912       2.53947769      -4.40565022       0.00271340       0.00681933      -0.00183590      -0.20941024
F       -2.60751509       4.34949280      -4.11617229      -0.02413561      -0.00558561      -0.00010717      -0.22658751
F       -2.03325779       2.95931390      -5.65261501       0.03345079      -0.01696250       0.01696053      -0.22218841
N       -2.10635548       1.69066948      -2.35818399       0.00193320      -0.01068813      -0.03863694      -0.21732964
N       -1.09712726       1.21573714      -1.65554033       0.00122301       0.00804384      -0.01730715      -0.05544323
H       -2.12656942      -0.94475638      -5.23708882       0.00983029       0.01348618      -0.02614664       0.05726624
H       -2.76939923      -2.49740242      -4.69552551       0.00544828      -0.01411326       0.00721812       0.04435911
H       -3.20275774      -1.00526320      -3.84569357      -0.00616567       0.00175018       0.00869056       0.05927622
H       -0.88703064      -0.69408570      -3.09484630       0.00775623       0.01303471       0.01494862       0.08044656
H        0.37593603      -1.69500245      -4.90517715       0.00465572       0.02392892      -0.01875352       0.05474878
H       -0.30196200      -3.28877428      -4.59822866       0.00364526      -0.01671397      -0.00529615       0.04685050
H        0.77905960      -2.53921728      -3.41101807       0.01533682      -0.00242040      -0.00882643       0.04874889
H       -1.65753483      -4.40813893      -3.06268417       0.01195746      -0.01389779      -0.03313817       0.05990625
H       -2.33062935      -5.05896517      -0.50874252      -0.01218210      -0.00561986       0.02338475       0.05916453
H       -4.39505548       1.17548924       4.06912954       0.02512409       0.00746414      -0.02469134       0.05589201
H       -4.54823635       3.59242331       2.79866101       0.00657263      -0.03156916      -0.03426669       0.05122114
H       -4.05916890       4.44545827       0.77266349       0.00877440       0.00452173      -0.01003424       0.04088265
H       -1.64751469       4.55564684       0.69166554      -0.02425720      -0.01145001       0.02499184       0.03648240
H       -1.56022558       3.19761158      -0.42849822       0.01095593      -0.02412340       0.01832135       0.07252872
H       -2.21890109       4.73886182      -0.97217311       0.01537271       0.02639805       0.00059648       0.05702375
H       -3.89011789       2.37614342      -1.46082572      -0.00104548      -0.00297180      -0.02036267       0.09294578
H       -4.53508533       4.01652447      -1.59973246       0.00932545      -0.00542538      -0.01984272       0.05442002
H       -5.37742272       2.82971744      -0.60233824       0.02501208       0.00518756       0.02128213       0.03756573
H       -4.19693165      -1.16198949       4.20061214      -0.01435105      -0.00793473       0.02643446       0.05775795
H       -3.02816313      -4.55894564       1.89359085       0.00204099      -0.00463068      -0.03073888       0.05432744
H       -1.16482595       1.66748577       2.61675334      -0.00071970      -0.02451197       0.00196394       0.02414622
H        0.03366563       1.63018026       4.68162157       0.02929532       0.00905513      -0.01957500       0.02200878
H        1.97453705       0.12243038       5.00990293       0.00206349      -0.03432411      -0.01833120       0.02779607
H        0.69062313      -3.41159960       0.93028151      -0.02240326      -0.00574373       0.00089106       0.03695916
H        1.77788744      -3.30540780      -0.46326182       0.00007312       0.01233712       0.02610936       0.03519089
H        0.27749518      -2.37100449      -0.44828496       0.02590185       0.02136161      -0.00562182       0.06800750
H        4.09609966      -3.19585039       0.14631112      -0.02652312      -0.00714311       0.00727171       0.02328356
H        5.90406584      -3.72895981       1.73553376      -0.02020882      -0.00183871       0.00965707       0.02710883
H        5.83788603      -2.87697088       4.03055232      -0.01837995       0.01241043       0.02012023       0.02843170
H        3.96359671      -1.46257568       4.79649355      -0.01638999      -0.00422316       0.01673485       0.02993678
H        4.15818210      -0.27408741       0.42701843       0.01496976       0.01487903      -0.00532029       0.04391180
H        5.83849207       0.94926464      -2.44441326      -0.00122210       0.01179667      -0.00247277       0.03502774
H        6.51123614       2.56484530      -2.19808404      -0.00778306      -0.01035450      -0.02320049       0.04142591
H        4.96432407       2.36675335      -3.02694408      -0.00214622      -0.00211037       0.01739899       0.03816701
H        6.69575140       2.20832043       0.27839673      -0.01315843      -0.00511811      -0.01158937       0.03913770
H        6.14936431       0.55623580       0.03145961      -0.01059936       0.00426057      -0.02520475       0.03637842
H        5.32127614       1.59848073       1.19824611       0.01284952      -0.00132905      -0.00727439       0.03732968
H        3.98712502       4.02140306      -1.35824886      -0.00554013      -0.00828675      -0.01376593       0.03940473
H        5.46566115       4.11585257      -0.41325412       0.01307296       0.00248883       0.00015435       0.04013485
H        3.95747891       3.61560116       0.35702569       0.00583005       0.00344237       0.00001308       0.03524587
H        2.57411467       2.63230509      -2.30215384      -0.00322640      -0.01822519      -0.01551745       0.03887061
H        0.46470976       2.69001321      -4.13048179       0.01607584      -0.00637161       0.03810218       0.01764414
