94
Properties=species:S:1:pos:R:3:forces:R:3:charge:R:1 energy=-4553.09913002754 free_energy=-4553.09913002754 dipole="0.6969705692633947 0.02815135315372608 -0.16648814250649105" pbc="F F F"
C        6.15536663      -1.14946926      -2.37836908       0.00752193       0.00964216      -0.00463802       0.03561453
O        5.69534348      -0.54875397      -1.18913192      -0.00519714      -0.00901834       0.01676226      -0.25972141
C        4.37413378      -0.28604166      -1.06562087       0.00382777       0.04029327       0.01595033       0.15725644
C        3.42154582      -0.50559128      -2.05089649       0.01247823       0.01673103       0.02033545      -0.09037216
C        2.09529612      -0.19696281      -1.75872558      -0.00555284       0.01904025       0.01048379       0.08583316
N        1.70647607       0.32218160      -0.59631727       0.01322110       0.01441876       0.00487454      -0.18871234
C        2.61583107       0.53445756       0.35166780       0.01113754      -0.00046261      -0.00099320       0.09643738
C        3.95296402       0.23870443       0.16427465      -0.00372561       0.00342779      -0.00148521      -0.07767234
C        2.04316015       1.01373500       1.66619949       0.01691940       0.02220654      -0.02422270       0.01278225
C        1.27422074       2.31870221       1.45829576       0.00805942       0.01918032       0.00173829      -0.10380984
C        3.03525338       1.19521600       2.78682549      -0.01681259      -0.02808273      -0.01305136      -0.00332550
C        4.03854915       2.13213105       2.92546137      -0.03128704      -0.00859475      -0.01417677      -0.03504312
C        4.78094687       2.14827039       4.09840173      -0.00925646       0.00591304      -0.01169644      -0.03464729
C        4.50793739       1.25657544       5.12413703       0.00634109      -0.01656584      -0.01364510      -0.03317007
C        3.50529002       0.31065616       4.99075778       0.00126898      -0.02296370      -0.02349929      -0.03433237
C        2.77938423       0.27699657       3.81086285      -0.03903751      -0.01559936      -0.00301777       0.00220812
C        1.71408838      -0.61135533       3.37726121      -0.01130120      -0.02129187      -0.00666346      -0.00235517
C        1.27059280      -1.78330085       3.96334894      -0.01113036      -0.00639378       0.00092514      -0.04071980
C        0.38118744      -2.55657849       3.24404830       0.02309322      -0.00713308      -0.00643311      -0.03838173
C       -0.10927322      -2.11933301       2.02075415      -0.00781196       0.00290720       0.01122021      -0.03625970
C        0.23389297      -0.89015303       1.45044351       0.03638430      -0.00336717       0.01282028      -0.04148619
C        1.20571285      -0.17317696       2.14011895       0.00535899       0.01474480      -0.00147056       0.00016341
Ir      -1.02930162      -0.16295605      -0.28146546      -0.02023183      -0.00661358       0.02536435      -0.02751054
C       -1.32691016       1.92679511      -0.43854859      -0.01439679       0.01677886      -0.00004391       0.00857998
N       -1.89812900       2.51177365       0.66515633       0.00541767      -0.00306964       0.01103097       0.02700757
C       -1.92617843       3.87111803       0.52865529       0.00211776      -0.00787333      -0.00119554      -0.01787773
C       -1.37404899       4.14756894      -0.67702037      -0.00919677      -0.03376898      -0.00421753      -0.01333759
N       -1.02268350       2.95634332      -1.25829878       0.01532945      -0.00798228      -0.02089194       0.01491630
C       -0.45664713       2.82924350      -2.58636382       0.02504912       0.00036277      -0.02328490       0.03517111
C        0.89529355       3.53431443      -2.64723651       0.01963288       0.00049320       0.00222953      -0.11451361
C       -1.45091943       3.34063329      -3.62710963      -0.00141787      -0.00495165       0.00560863      -0.11581069
C       -2.45370342       1.65029252       1.60794531       0.00402157      -0.01754940      -0.00356575       0.05522532
C       -3.28403999       1.99660120       2.65873049      -0.01393865       0.00809186      -0.01704661      -0.04583757
C       -3.93244209       0.97382672       3.34570378       0.01976728      -0.01219156       0.00185858      -0.03755383
C       -4.83453994       1.32513586       4.48665279       0.00213890       0.00525897       0.01179097       0.48561683
F       -4.41308434       2.39738024       5.17603217      -0.00002991       0.01420605       0.01158731      -0.20889664
F       -6.08878014       1.62544520       4.07716513      -0.00358264      -0.00309679       0.00087790      -0.21653448
F       -4.97150754       0.32955861       5.37622072      -0.00546924      -0.00302215       0.00033418      -0.20815604
C       -3.86911140      -0.35006647       2.91526214      -0.01648418      -0.01318501      -0.03599205      -0.04670710
C       -3.04307415      -0.65382645       1.84795917       0.00862305       0.01960628      -0.02704218       0.05824818
C       -2.21858515       0.31215061       1.26099883       0.03332637      -0.00346489      -0.03398691      -0.05743973
N       -3.03504899      -1.85353643       1.13264892       0.01301559       0.01472494       0.01023894       0.03189989
C       -3.67546079      -3.04051999       1.34832534       0.00800448       0.02197861      -0.00643198      -0.01655480
C       -3.39899137      -3.82191615       0.27575747      -0.00129551       0.00882889       0.00481245      -0.01347182
N       -2.59425684      -3.09978396      -0.56633144       0.00124179       0.01498949       0.00079279       0.02438619
C       -2.12158812      -3.56946289      -1.85481592      -0.01096119      -0.00778253      -0.00979127       0.02960841
C       -3.29618701      -3.67832141      -2.82311236      -0.01386719      -0.00272411      -0.00700431      -0.11704568
C       -1.36919178      -4.88788195      -1.70516945       0.00865473      -0.00473590       0.00432234      -0.11279571
C       -2.35981954      -1.88025924      -0.05535408      -0.01728218       0.02639459       0.00663938      -0.00017112
N       -0.22906707      -0.62291767      -2.16603306       0.00523272      -0.02379822      -0.01160457      -0.05481416
N       -1.08181273      -0.86402278      -3.14567135      -0.01458474       0.01668513      -0.01437735      -0.22469617
C       -0.39419142      -0.85933514      -4.29474047      -0.00692448       0.01426353      -0.01048257       0.01077870
C       -1.06255710      -1.06307559      -5.59904612      -0.00434962      -0.00214668      -0.01168967       0.48210793
F       -1.50382725      -2.32749754      -5.78640191      -0.00627387      -0.02561912       0.00886653      -0.22197047
F       -2.13928209      -0.27397877      -5.77976124      -0.00757321       0.00102659       0.02004705      -0.21482767
F       -0.23906609      -0.80473255      -6.63372111       0.00215099      -0.02436607      -0.00018533      -0.22054212
C        0.96106974      -0.62937148      -4.05610485      -0.01992934       0.01266444      -0.01073401      -0.08209628
C        1.01707653      -0.47548639      -2.67353679      -0.01098942       0.00023449      -0.00439629       0.03041330
H        7.23235707      -1.25224005      -2.25597984      -0.00791323      -0.00532447      -0.00707121       0.06589289
H        5.94789637      -0.52550274      -3.25324721       0.01290213       0.01886765       0.01514785       0.04445942
H        5.71055011      -2.13885039      -2.52757412      -0.00604455       0.02126552       0.02382311       0.04486987
H        3.66204295      -0.92647817      -3.01292890       0.00655079      -0.00619005       0.02350641       0.04264164
H        4.67768809       0.38843124       0.94773690      -0.00658844       0.01293621      -0.02535851       0.05390101
H        1.97102577       3.13505589       1.27369227      -0.00831119      -0.01547642       0.02383594       0.03634433
H        0.67895973       2.55294706       2.33815712       0.01095334      -0.02209686      -0.01775308       0.03896715
H        0.63148527       2.19935425       0.59595887      -0.01306802       0.01476785       0.03312176       0.06990768
H        4.24901540       2.84327293       2.13945776       0.01121879       0.00049179      -0.01285859       0.02427229
H        5.57549418       2.86987076       4.21557188       0.01075310       0.02003900       0.00915633       0.02812068
H        5.08620537       1.29989174       6.03525861       0.00805891       0.00013935       0.01022848       0.02891606
H        3.28891725      -0.37961318       5.79257683       0.01909643      -0.00856432      -0.01061439       0.03062758
H        1.64597567      -2.10266395       4.92499890      -0.00728158      -0.00237667      -0.03464326       0.02838517
H        0.06808225      -3.52083530       3.62247821      -0.00622378       0.03427225       0.00401108       0.02217660
H       -0.76106935      -2.80142968       1.49769631      -0.00900848      -0.02488911       0.01705069       0.02160239
H       -2.32835710       4.52692469       1.27222089       0.00725799      -0.00154056       0.00303201       0.05908533
H       -1.21639954       5.09147322      -1.15670920      -0.00615162      -0.02152988       0.01084150       0.05868837
H       -0.29766638       1.76215102      -2.75023511      -0.02085207      -0.00849420       0.02566244       0.07781882
H        1.54882103       3.12123183      -1.88206213       0.03788746       0.02308632      -0.00602183       0.04974374
H        0.79580533       4.60591243      -2.48700181      -0.01467288      -0.02026872      -0.00804381       0.04617751
H        1.35599380       3.37238229      -3.61792518      -0.02710613      -0.00475850       0.00697613       0.05351258
H       -1.64140617       4.40578831      -3.51283151       0.03934378      -0.00819937       0.01084238       0.04519687
H       -1.06771638       3.16258952      -4.62816748       0.01717498      -0.00002814       0.02977198       0.05757823
H       -2.39136836       2.80463063      -3.52350188      -0.01124280       0.00242334      -0.02606264       0.05483683
H       -3.45837430       3.02449866       2.93298701       0.00815404       0.02466197       0.03028468       0.05620370
H       -4.47446858      -1.10072904       3.39684763      -0.02853875      -0.00700070       0.01673308       0.05653015
H       -4.25622579      -3.24460979       2.22381206      -0.00199495       0.00678604      -0.01583580       0.05651271
H       -3.72303973      -4.81608596       0.05205098       0.01256367      -0.03046121       0.01137251       0.05685532
H       -1.44221282      -2.80007711      -2.22709700      -0.00924046       0.00138342       0.00433464       0.09052648
H       -4.02664276      -4.40710039      -2.47727463       0.00105894      -0.00793509      -0.00575754       0.04133728
H       -3.77856730      -2.70945320      -2.92098332      -0.01128844       0.00412313      -0.00132245       0.05688159
H       -2.93991838      -3.97730989      -3.80435887       0.01945103      -0.00159254       0.01054772       0.06304706
H       -0.58880136      -4.79573054      -0.95253672       0.00005609      -0.00060338       0.00479232       0.04561089
H       -0.90303854      -5.14528645      -2.65180713      -0.00567213      -0.00264644      -0.00577970       0.05469285
H       -2.03701115      -5.69923821      -1.42320798       0.00072274       0.00620690       0.00529589       0.04415530
H        1.74866296      -0.55931458      -4.77724054      -0.00144970      -0.00915286       0.00419936       0.01883917
