94
Properties=species:S:1:pos:R:3:forces:R:3:charge:R:1 energy=-4550.999243616986 free_energy=-4550.999243616986 dipole="1.7503002037805941 0.35114456130896776 0.3287597675717141" pbc="F F F"
C        9.11064647      16.30137129      24.55438215      -0.00185006      -0.01161832      -0.00133880       0.03852666
O        8.75270776      15.10532700      23.90353446      -0.00839114       0.01389435      -0.01514652      -0.26602199
C        7.77624682      14.33426364      24.44472068      -0.00190202       0.00069981      -0.01303870       0.15514681
C        7.40138443      13.20712046      23.70878983      -0.00556716      -0.00170756       0.00874033      -0.07610300
C        6.43539669      12.37426518      24.24461152      -0.02335199       0.01169285       0.01178863       0.08984495
N        5.82389306      12.63107391      25.39309931      -0.02299086       0.00302792      -0.00061716      -0.24154276
C        6.12498571      13.72452176      26.06281882       0.00409206      -0.00988862      -0.01389827       0.10117959
C        7.12634331      14.59688641      25.64687593       0.00949701       0.01132554      -0.00420885      -0.08972661
C        5.24620777      14.01101738      27.27552684      -0.00185815       0.00510198      -0.02575886       0.01348684
C        6.05090016      14.02556260      28.57366552      -0.01253415       0.00684824      -0.01242442      -0.09876783
C        4.50443273      15.30354288      26.99415301      -0.01750449      -0.00895439       0.01631300      -0.00037180
C        4.96664601      16.60244657      26.99319945       0.00375313      -0.00136309      -0.02209118      -0.03561603
C        4.10090960      17.62508672      26.62679412      -0.01062246       0.00408912       0.01590713      -0.03537326
C        2.79184344      17.35216761      26.26430702       0.00342498      -0.00279453       0.01269537      -0.03304054
C        2.30872469      16.05421718      26.29367150      -0.00538585      -0.01377183       0.01816514      -0.03375723
C        3.16471913      15.03381880      26.67368811       0.02161567      -0.01391821      -0.00525784       0.00442149
C        2.91581232      13.61306882      26.85035765       0.00481884       0.00116380       0.00136127       0.00431781
C        1.76066335      12.86622576      26.68959859       0.00786087       0.01582273      -0.00181890      -0.03705066
C        1.78901214      11.50818844      26.95324288       0.00957243       0.01330844      -0.00004575      -0.03055946
C        2.96227762      10.90488329      27.39658543       0.00067960      -0.00460825      -0.00662142      -0.02412309
C        4.09409834      11.66724699      27.54310726      -0.00352809       0.01090108       0.00415160      -0.06557470
C        4.11439131      13.00275830      27.27642346       0.00272292       0.00871042      -0.01296269       0.01936981
Ir       5.13846303       8.40846287      24.12210320       0.01679314       0.02555291      -0.02223891       0.04089911
C        4.77362517       7.82058552      21.32019801       0.00478779       0.00176750      -0.01346074       0.19639033
N        3.99359085       6.71314353      21.50759063       0.01619354      -0.00027133       0.00149001      -0.01152718
C        4.20297169       5.85438605      20.45054813      -0.01272662       0.01312853      -0.01392989      -0.01622526
C        5.11821196       6.41382836      19.63924317      -0.00872532      -0.02336617       0.00084237      -0.01469255
N        5.49641577       7.62752262      20.17194436      -0.00094051      -0.01214830      -0.00137673      -0.04962929
C        6.76845044       8.24751692      19.80426322       0.00319610      -0.01620439       0.00091043       0.04630733
C        6.62962605       9.59564809      19.10285861       0.00744417      -0.01192445      -0.00023809      -0.11935066
C        7.68778715       8.33479041      21.02153340       0.00307219      -0.00119865       0.00440554      -0.12084119
C        3.35098117       6.35762767      22.71002388       0.00302890      -0.01147921      -0.00021915       0.05256703
C        2.28879925       5.46248714      22.69770046      -0.01203219       0.00230538       0.00179259      -0.04752443
C        1.76448249       5.02192449      23.90619298      -0.00850659       0.00303499       0.00332979      -0.04117200
C        0.62574354       4.05417734      23.86188715       0.00068817      -0.00489851      -0.00383381       0.48494453
F        0.14891754       3.72485729      25.07110986      -0.00051487       0.00277723      -0.00579940      -0.21006555
F       -0.42443823       4.51936579      23.15584741      -0.00040851      -0.00622979       0.00656895      -0.21460191
F        0.96684730       2.88821057      23.26708015      -0.00061418      -0.00296802      -0.00214670      -0.21971315
C        2.28872154       5.44934405      25.12497075      -0.00344224       0.00859483      -0.00430649      -0.05011028
C        3.32254347       6.36282899      25.09475576      -0.00399759       0.00388690       0.01372660       0.05265327
C        3.89351652       6.85927363      23.89895095      -0.01079808      -0.01461144       0.00562749      -0.11965841
N        3.95368156       6.88994259      26.22868177      -0.00773977       0.01102723       0.00300793       0.01852626
C        3.79177691       6.66275728      27.56755588      -0.00942687      -0.00761463      -0.00046846      -0.02126686
C        4.69992200       7.44175089      28.20393620      -0.01125713      -0.00193327       0.00740920      -0.01675005
N        5.39800336       8.13702830      27.25055627      -0.01005244       0.00056045       0.00595996       0.02092025
C        6.52587976       9.01611581      27.49008518      -0.00737431      -0.00320296       0.00650136       0.02452499
C        7.73232624       8.17713268      27.92139850      -0.00077574      -0.00449158      -0.00160224      -0.11813856
C        6.19550900      10.09539923      28.50619897       0.00863530       0.01214207      -0.00137313      -0.12902783
C        4.95479972       7.80364020      26.02045773       0.00302777      -0.00196067       0.00161714       0.01135982
N        6.00079302      10.03404928      24.24777394       0.00832630       0.00919122       0.00059816      -0.25045360
N        4.78238517       8.88536140      22.11539887      -0.03128438      -0.03005450       0.01915188      -0.18055800
C        4.79797121      10.17553566      21.64379617       0.00526306      -0.00666712      -0.00669853       0.02635063
C        3.86034453      10.50780192      20.50591440       0.00567119      -0.01540958      -0.00878019       0.47916465
F        3.58528437       9.49225863      19.66531085      -0.00430674      -0.00233968      -0.00683501      -0.21944655
F        4.29166927      11.51928117      19.72953435      -0.00298087      -0.00004311       0.01340473      -0.21467826
F        2.66037848      10.90316938      20.97955298      -0.00214918       0.00452874       0.00338236      -0.21176988
C        5.35495339      11.23606169      22.29175728       0.00384392      -0.01029987       0.00815197      -0.07460913
C        5.97166052      11.11659999      23.59400844       0.00856730      -0.00252341       0.01019261       0.09399765
H        9.85275545      16.77487917      23.91337804       0.00080939      -0.00720146       0.00737799       0.06295261
H        9.55340796      16.10685876      25.53658283      -0.00538143       0.00178217       0.00519561       0.04093420
H        8.25015825      16.96883788      24.66500169       0.00222075       0.00121084       0.00469333       0.04281157
H        7.86871647      13.00643597      22.75857046       0.01849975      -0.00502317       0.01460371       0.04658893
H        7.37420178      15.46315978      26.23446935       0.00450733       0.00809925       0.00666973       0.03679329
H        6.51515155      13.05589555      28.72857646       0.00640537       0.00385959       0.00648732       0.04690369
H        5.39133331      14.23838930      29.41190752      -0.00076343       0.00387309       0.01236432       0.04226769
H        6.82741529      14.78571520      28.53829566      -0.00070979       0.00195437       0.00580166       0.03846167
H        5.97996482      16.84371869      27.28099350      -0.01333496      -0.00754935       0.00401077       0.02219453
H        4.45450291      18.64593352      26.62659145      -0.00172205       0.00662714      -0.00587633       0.02713741
H        2.13862743      18.16045994      25.96945894       0.00488719       0.00521729      -0.00019734       0.02979010
H        1.28402901      15.84185593      26.02814499      -0.00488578       0.00599037       0.00932431       0.03257104
H        0.84757631      13.33791414      26.35707058      -0.00219182       0.00618649      -0.01050504       0.03437749
H        0.90209735      10.90645895      26.81809792      -0.01741971       0.01173121       0.00567324       0.03338567
H        2.97076532       9.84756549      27.61413726      -0.00198201      -0.02445854      -0.00743663       0.03304614
H        3.70619186       4.90987751      20.37742167      -0.00071838       0.02133682       0.01809067       0.06917248
H        5.53799578       6.04545445      18.72618836       0.00714191       0.02189645       0.00287603       0.06118399
H        7.20867069       7.54465632      19.08782529       0.01088460      -0.00527816      -0.01582710       0.05256595
H        7.56063887       9.82550149      18.59175820       0.01295450       0.00505807      -0.00308346       0.05248411
H        5.83334189       9.56735646      18.36383004      -0.00910084      -0.00006621       0.00215574       0.05613898
H        6.43195353      10.39014618      19.81483984       0.01368889       0.00779430      -0.00622804       0.05417008
H        7.82013784       7.35247552      21.47099302      -0.00160484       0.00097685      -0.00594018       0.04829591
H        7.28409768       9.00453083      21.77767583       0.01259315      -0.00030285      -0.00913314       0.07064703
H        8.65994451       8.71025791      20.71392517      -0.00674155       0.00117332      -0.00352896       0.05511292
H        1.85127871       5.11779990      21.77260310       0.00509751       0.00112135       0.00432464       0.04430291
H        1.87363298       5.07896379      26.04960828       0.01350440       0.00101535      -0.00744440       0.04836212
H        3.06319200       5.98774560      27.96757886       0.01421553       0.00678337      -0.00445568       0.05451589
H        4.88862060       7.54265558      29.25273687       0.00571562       0.00343047      -0.00763413       0.05593190
H        6.73603465       9.49037984      26.52479767       0.00351340      -0.01855300      -0.01050663       0.09730477
H        8.61771810       8.80225723      27.98185053       0.00443837       0.02014698       0.01509953       0.05236634
H        7.91598092       7.39224334      27.19268728      -0.00249014      -0.01867514      -0.01204163       0.05012484
H        7.56137234       7.72165426      28.89469011      -0.00469081      -0.00354069       0.00104580       0.04602638
H        7.07273246      10.70985024      28.68431497       0.02412339       0.00113079       0.00411626       0.04488247
H        5.84979368       9.68772976      29.45276960       0.01016044      -0.01629167       0.00275841       0.04180796
H        5.37237391      10.77859250      28.08958845       0.00581830       0.00751281      -0.00148442       0.10104305
H        5.22820283      12.22719283      21.88393225      -0.00847805       0.00641268      -0.00000267       0.03788360
