101
Properties=species:S:1:pos:R:3:forces:R:3:charge:R:1 energy=-4708.660071341196 free_energy=-4708.660071341196 dipole="0.5004663422712523 0.46212957800009813 0.06205575188285729" pbc="F F F"
C       -4.51192881      -3.68157435       0.97730306      -0.00812082       0.00417079      -0.00532354      -0.11751321
C       -3.19500288      -3.27759515       1.63515002      -0.01369438       0.00589559       0.00481901       0.03236280
C       -2.73013541      -4.32440939       2.64378742       0.01151338       0.00742119      -0.00367755      -0.11234632
N       -3.33234008      -1.97324289       2.26092556      -0.00666534      -0.00606638       0.00604263       0.02305059
C       -3.91972925      -1.75777159       3.47996341      -0.00106779      -0.00690151       0.01441877      -0.01364141
C       -3.88020212      -0.42580035       3.72480645      -0.00031472       0.00083078       0.01008124      -0.01728749
N       -3.26883657       0.14517119       2.64606419      -0.00141744      -0.01833079      -0.01497319       0.03178529
C       -2.93396320      -0.80576897       1.72567876       0.01039177      -0.02579602      -0.02221320      -0.00321810
Ir      -1.62725345       0.01008446       0.15878225       0.01197477      -0.04623120       0.01168770      -0.02488146
C       -1.85001930       1.47520310      -1.34119207       0.00302047      -0.01007873      -0.03060638       0.00999697
N       -2.10901401       2.74266792      -0.88320873      -0.00111629       0.00277554      -0.02609797       0.02815999
C       -2.09005669       3.63920649      -1.91355448       0.00683264       0.01185164      -0.02137213      -0.01844500
C       -1.82516101       2.92835363      -3.03594790       0.00151420      -0.01679737      -0.00448913      -0.01321049
N       -1.68595592       1.61230824      -2.67502488      -0.00191913      -0.00496431      -0.02618334       0.01382619
C       -1.48435538       0.52466302      -3.61308520      -0.01548979       0.00174058      -0.01658432       0.03805464
C       -2.65612421       0.44772704      -4.59095498       0.00074222      -0.00664555      -0.00140322      -0.11441188
C       -0.15133456       0.67141975      -4.34212795      -0.01150470      -0.00296144       0.01888511      -0.11227975
C       -2.43757791       2.86235303       0.46448720      -0.02491065       0.02132393      -0.01866400       0.05416530
C       -2.92943306       3.98579206       1.10548776       0.00336241       0.00171371       0.03542208      -0.04603962
C       -3.41338028       3.83740442       2.40503411      -0.00035357       0.00197211       0.01748529      -0.03790530
C       -3.89301164       5.06263612       3.12321871      -0.00928696      -0.01347396      -0.01672060       0.48503998
F       -4.93258850       5.65342849       2.49530544      -0.00799240      -0.00760392       0.00007993      -0.21455786
F       -4.30294472       4.82150185       4.37645798      -0.00132045       0.00481659      -0.02372388      -0.20688976
F       -2.94395583       6.01545063       3.21371715       0.00360134      -0.03826233      -0.01824788      -0.21155625
C       -3.54155368       2.58130126       2.99604780      -0.00880262       0.00403811      -0.00706066      -0.04822487
C       -3.04197546       1.48332413       2.31627694      -0.00998811      -0.00893423       0.01090864       0.05690389
C       -2.35375226       1.61518758       1.10548238      -0.02399237       0.03253385       0.01036256      -0.05884797
C        0.02211202       0.11094209       1.66852696       0.00306654       0.03105854       0.00755751      -0.03766020
C       -0.10474233      -0.67708429       2.81572677       0.01658441       0.00124564      -0.01593299      -0.03457106
C        0.83727659      -0.68863438       3.83635303      -0.02667825       0.01936541       0.00943088      -0.03719902
C        1.96382200       0.10455154       3.76186449       0.00398211       0.00026509       0.00971328      -0.04033104
C        2.13180652       0.87655577       2.62716000      -0.02178390       0.02250394       0.01477236      -0.00220995
C        1.16863321       0.89389433       1.60175467       0.01553937       0.01535138      -0.00396045       0.00137045
C        1.73423901       1.68407985       0.41490345       0.00243468       0.00043649       0.01469158       0.01270629
C        0.85971200       2.79985610      -0.16158780       0.01648622       0.00600331       0.01331648      -0.10333361
C        3.03056997       2.21959090       0.97082535      -0.00726668       0.00255945       0.00769734      -0.00291102
C        3.94608159       3.07077089       0.38541798      -0.00271268      -0.00056125      -0.00881035      -0.03635681
C        5.10197895       3.39536607       1.08265597      -0.00309493      -0.01217546      -0.00502903      -0.03520393
C        5.33916792       2.86844269       2.34269993      -0.00191160       0.02333682       0.01889308      -0.03331489
C        4.41588403       2.03154318       2.94622346      -0.00278917      -0.00867317      -0.00459517      -0.03390372
C        3.25672724       1.71565210       2.25584577      -0.00421670      -0.00567221       0.00876562       0.00242269
C        1.96431399       0.54512460      -0.55912247       0.00583764       0.01276455       0.00979281       0.09551604
C        3.23576514       0.08593065      -0.86367379      -0.00501253      -0.00848025       0.01639205      -0.05818944
C        3.41363598      -1.14736965      -1.49092389       0.00062013       0.00046451       0.00641670       0.02608239
C        4.81307590      -1.69716389      -1.69157908      -0.00096485      -0.00250245      -0.00917344       0.02628156
C        4.79403522      -3.19058653      -2.02808488       0.00719222      -0.00540023      -0.01621994      -0.11111466
C        5.48338078      -0.92966502      -2.83822999       0.00302232       0.00135350      -0.00301755      -0.10572342
C        5.63076195      -1.51074803      -0.40454111       0.00126629      -0.00464816      -0.00589032      -0.10651855
C        2.26576729      -1.84252929      -1.83848669       0.00921429       0.00746181      -0.02083410      -0.05346078
C        1.02355261      -1.28871482      -1.54096246       0.01611392       0.00261765      -0.00497504       0.07886321
N        0.87203217      -0.11547473      -0.92871029       0.01796359      -0.00245909       0.01580164      -0.18005299
C       -0.19628835      -2.03674717      -1.70656921       0.00350016       0.00687575      -0.00994238       0.13598853
N       -0.41688704      -3.09657222      -2.48658564      -0.01743091      -0.00796768       0.00564359      -0.33160673
C       -1.68052484      -3.41190370      -2.17063410      -0.01650435      -0.02273483       0.00911876       0.12084009
C       -2.40931770      -4.54663006      -2.78326494      -0.00952376      -0.02517600      -0.02154845       0.48023854
F       -3.71461311      -4.55579002      -2.46739085      -0.00662437       0.02826801       0.01236298      -0.20938316
F       -1.93308394      -5.74806357      -2.39771500       0.03032740      -0.00560420       0.01205412      -0.21424204
F       -2.34554142      -4.53578085      -4.12595664      -0.01051992      -0.00852446      -0.03089796      -0.20934741
N       -2.21783803      -2.62169474      -1.25075172      -0.01791242       0.00540074      -0.00076571      -0.24478977
N       -1.26911512      -1.73510814      -0.94912159      -0.01181849       0.00319234      -0.00631345      -0.07955654
H       -4.78198808      -2.96153612       0.21060825       0.00909823       0.02517606       0.00325285       0.06219085
H       -5.31285777      -3.74560770       1.71167362       0.00230855       0.01037923       0.00606636       0.04117912
H       -4.39752191      -4.64876443       0.49798416       0.00286950      -0.00436707       0.00278745       0.06197662
H       -2.44062875      -3.16480378       0.85281196      -0.02952484       0.01452727       0.00029878       0.08721928
H       -1.87471282      -3.96371757       3.21088114       0.01486621       0.00692336       0.00413551       0.04385791
H       -3.52471952      -4.59538094       3.33609000       0.00583430       0.01483371      -0.00522345       0.04479832
H       -2.43110538      -5.22243039       2.11076561       0.00231221      -0.00164521      -0.00256509       0.05561157
H       -4.31462624      -2.54999175       4.07985252      -0.01311248      -0.00610080       0.00107082       0.05836358
H       -4.23479717       0.13297809       4.56479030       0.01054772       0.01174060       0.02005495       0.05622709
H       -2.25737062       4.68759119      -1.78294432      -0.01195295       0.00608246       0.00517100       0.05906695
H       -1.73777156       3.26043026      -4.05038152       0.00829191      -0.01493026       0.03562814       0.05831816
H       -1.46162288      -0.38931970      -3.01690568      -0.00036022       0.02989697      -0.00178213       0.07249836
H       -2.56592613      -0.45246183      -5.19252274      -0.00097189       0.00269339       0.00248789       0.05932762
H       -3.59968902       0.40624358      -4.05085671       0.01662260      -0.00379251       0.00148181       0.04953404
H       -2.67092187       1.30700571      -5.25859996      -0.00015099      -0.00527835       0.01863231       0.04552922
H       -0.15260527       1.54293953      -4.99420586       0.00958174      -0.00981993       0.02621332       0.04568408
H        0.02480385      -0.21393448      -4.94693661       0.01080378       0.01581165       0.00543647       0.05826639
H        0.66064436       0.76311353      -3.62435030       0.00421879       0.01223743      -0.00677747       0.04579736
H       -2.96031687       4.95426041       0.62840402      -0.00139818      -0.03671034       0.01193208       0.05475685
H       -4.03792275       2.48121631       3.94919703       0.02208339       0.01651355      -0.02523585       0.05868339
H       -0.94436123      -1.34478222       2.93402037       0.01032353      -0.00018807       0.00650060       0.02581783
H        0.67991040      -1.33244549       4.69105832       0.00523725       0.00770369      -0.00559690       0.02385503
H        2.70653946       0.10417350       4.54542872      -0.00781568      -0.01519837       0.00950491       0.02973468
H        0.42435582       2.48257252      -1.10249713      -0.01572928      -0.00495731       0.03973194       0.04603078
H        1.45590714       3.69042981      -0.34604501       0.03468568      -0.00669031       0.00497555       0.04368619
H        0.07339738       3.05807682       0.54042510       0.01488250      -0.00165988       0.00290359       0.05074609
H        3.78016154       3.47531647      -0.60301105      -0.00260798      -0.01140844      -0.02528139       0.02483497
H        5.82665723       4.06155977       0.63764711       0.00075843      -0.01285845      -0.01363332       0.02870261
H        6.25212305       3.11855375       2.86200485       0.01408422       0.02396452       0.00919922       0.02996753
H        4.60106804       1.63596514       3.93350940      -0.01701687      -0.00690887      -0.00066808       0.03157915
H        4.08274371       0.67894954      -0.56198047       0.00625431      -0.03962213      -0.00345985       0.04398681
H        5.81285962      -3.56968278      -2.05674987       0.01634277      -0.00373366      -0.02279230       0.04068246
H        4.24629837      -3.75100132      -1.27372318       0.00641872       0.01406904      -0.00231864       0.04028613
H        4.34383928      -3.37156039      -3.00030708      -0.02382459      -0.00349323      -0.00711344       0.04190385
H        5.46619428       0.14139719      -2.65031793       0.00439228       0.00011370       0.00624034       0.03662290
H        6.51871003      -1.24657394      -2.93906398       0.00613426       0.00255658      -0.02077209       0.04354950
H        4.96935163      -1.12388432      -3.77710016      -0.01325059       0.01907627       0.00102836       0.03774269
H        5.81674701      -0.46230486      -0.18974004       0.01175171       0.00011086      -0.00422552       0.03796731
H        6.59263631      -2.00669627      -0.51082159       0.01645482       0.00429728       0.01624027       0.04181782
H        5.11072921      -1.94615204       0.44592668      -0.01642192      -0.00740235      -0.00844157       0.03564846
H        2.28099415      -2.81480220      -2.29896401      -0.00440237       0.00007578       0.00754615       0.06453246
