88
Properties=species:S:1:pos:R:3:forces:R:3:charge:R:1 energy=-3550.0255974553556 free_energy=-3550.0255974553556 dipole="-0.9153538062716461 0.23425266816500556 0.1150657878215183" pbc="F F F"
C        4.99849083      11.29273904       7.83981484       0.00707743      -0.01801993      -0.01452348      -0.11716548
C        6.06597587      11.45181074       6.75464504      -0.00550617      -0.01604667      -0.02011513       0.04493143
C        7.26451862      10.54644812       7.00080187       0.00726711      -0.01184205      -0.01798438      -0.11678131
N        5.44086863      11.24584380       5.45600045       0.00307156      -0.00277965      -0.02667696       0.00920476
C        5.05874066      12.32205132       4.70056185      -0.01921307      -0.02678170       0.00392350      -0.01847500
C        4.31779877      11.85970998       3.66439218      -0.01199346       0.01092545       0.03609333      -0.01672561
N        4.25808106      10.50597390       3.80923418       0.01918656       0.03848210      -0.00311017       0.02913190
C        4.96751909      10.09894889       4.90966894      -0.02206995       0.03158924       0.00181857      -0.00278000
Ir       5.04628362       7.91821824       4.95330757      -0.00310374      -0.02153262      -0.00443129       0.01645440
C        4.27303092       6.03122241       4.51567092       0.01475915      -0.01477419       0.00989880       0.01468770
N        3.31841667       6.02661278       3.53878334       0.00883584      -0.01444446       0.02549830       0.03059050
C        2.85435371       4.75824121       3.34150914       0.00441657      -0.01759705       0.01818498      -0.02030998
C        3.52974187       3.95911598       4.20660181       0.03894504      -0.00757552      -0.00269319      -0.01650201
N        4.38760592       4.75113460       4.91929595       0.01243868       0.00403936       0.01508544       0.01487952
C        5.39475431       4.28664007       5.85530020       0.01682043       0.01773470      -0.00865651       0.03590217
C        6.61362920       3.79717574       5.07133513      -0.01503890      -0.00328177       0.00213395      -0.10987271
C        4.85405455       3.22131353       6.80340751      -0.00587530       0.01676659      -0.01620234      -0.11493921
C        2.99340536       7.24646487       2.94392043       0.02555825       0.00920847       0.00769299       0.04185973
C        2.14534851       7.47555006       1.85936542       0.00378524       0.01961195       0.03365808      -0.06498038
C        2.00816787       8.77091095       1.36939423       0.00480777       0.00171876      -0.02074695       0.00509738
C        1.12553767       9.08611989       0.17012373      -0.01458973       0.00842061      -0.01039951       0.02643964
C        0.35506548       7.86358194      -0.33939635       0.00348578       0.01600286       0.00312602      -0.10707049
C        2.01552691       9.59544781      -0.97283845       0.00419746      -0.00327871       0.00379811      -0.10436805
C        0.10333510      10.16248449       0.56417928      -0.01233002      -0.00752155      -0.00743613      -0.10561684
C        2.71003314       9.82413318       1.96563806      -0.02190793      -0.01384042       0.01166738      -0.06196752
C        3.52571001       9.57371690       3.06448241       0.01366143       0.01829995      -0.01300947       0.04393799
C        3.67446640       8.28865629       3.56031925      -0.01215496       0.02253225       0.01603716      -0.07102782
C        4.01250165       7.78028144       6.73707641       0.00049909       0.00068505       0.02256792      -0.03525223
C        2.65517856       7.92034036       6.95226255      -0.00953010       0.00173039       0.00068239      -0.03765719
C        2.10743787       7.82821670       8.22995523      -0.01508807      -0.01066205      -0.00439953      -0.04672060
C        2.92726485       7.55900607       9.31827438      -0.00540750       0.00283173      -0.00367929      -0.03867800
C        4.28069537       7.39923413       9.14001642      -0.00220211       0.00485307       0.02560884      -0.04661127
C        4.85406274       7.50270830       7.86129701      -0.01833812      -0.00801774       0.02360780      -0.01360064
C        6.25416261       7.32530406       7.59918058      -0.00815051      -0.01266735      -0.00774636       0.05171163
C        7.29042577       7.05475434       8.48944416      -0.01992762      -0.00507695       0.00253745      -0.04705373
C        8.58560084       6.91178223       8.02227475       0.00608852      -0.00997805      -0.00002557      -0.04298451
C        8.85038685       6.99152389       6.64443244      -0.01206131      -0.02313833      -0.01021112      -0.05128526
C        7.80164659       7.25198811       5.79004958      -0.01000825      -0.00845752      -0.02506218       0.06382617
N        6.54835030       7.45189550       6.25979054      -0.03374800      -0.00214040      -0.01464440      -0.15992950
C        7.86050647       7.32761925       4.34988720      -0.00152932      -0.02374444      -0.00943823       0.14116517
N        8.91084734       7.11970230       3.58043785       0.00489524       0.00994317      -0.01892968      -0.32567015
C        8.43567890       7.26268449       2.30613922      -0.00138661       0.01760697      -0.00678697       0.06603472
C        9.09662142       7.19475925       1.08926853       0.00933685       0.01611502      -0.01168145      -0.04762230
C        8.36065902       7.41731328      -0.06187509      -0.02080549       0.02928586       0.00030946      -0.04085364
C        6.99719324       7.70384347      -0.01219521      -0.02327535       0.01464375       0.02943767      -0.04354383
C        6.31467659       7.77877384       1.18875287       0.00112296       0.00499848       0.04641268      -0.05146211
C        7.03902767       7.56014589       2.35597605      -0.00280708       0.00188010       0.02802793       0.04934797
N        6.69224328       7.61345413       3.66926345      -0.00143056       0.02839076       0.01633115      -0.19178399
H        4.58474651      10.28755851       7.81010740       0.01507942      -0.01420305      -0.00021883       0.06584727
H        4.18912344      12.00610696       7.68745394       0.03295185      -0.03036285      -0.00111366       0.04059815
H        5.43241807      11.46496609       8.82049126       0.01878108      -0.00363726      -0.00611905       0.05236196
H        6.42104659      12.49050496       6.75268776      -0.03877078       0.01055316      -0.02504359       0.04268579
H        6.94324113       9.53613683       7.21531847      -0.02281775       0.00959946      -0.03113680       0.07408996
H        7.82346041      10.91155763       7.85807905       0.00228819       0.02350575       0.01730675       0.04519027
H        7.92975415      10.53137969       6.14058359      -0.02852147       0.00801551      -0.02793485       0.04605967
H        5.33399244      13.32526524       4.95379775       0.00812847       0.00348916       0.00892923       0.04515867
H        3.83456113      12.38088257       2.86518137       0.02389521       0.02790172      -0.00564712       0.05087965
H        2.09261064       4.52247230       2.62848261      -0.00253406      -0.02523029      -0.00989164       0.05451650
H        3.46078121       2.90218373       4.35557322      -0.00136741      -0.00347355       0.00159269       0.05433090
H        5.68243729       5.16090970       6.44422716       0.00279562       0.00570486       0.01178053       0.07558668
H        7.40404432       3.50016099       5.75544009      -0.01840167       0.00762600      -0.01313150       0.05310333
H        6.35184860       2.94741137       4.44310765       0.00744162      -0.00198618       0.01477362       0.04393424
H        6.99175757       4.59602175       4.43616534       0.00916452      -0.02718423       0.02130292       0.05352286
H        3.94376998       3.56663091       7.28688938      -0.01553247       0.03452165      -0.00788911       0.05026184
H        5.59715225       3.02708619       7.57215315      -0.01450898      -0.00519688      -0.00158663       0.05420092
H        4.64680158       2.28577224       6.29014739       0.01333949       0.00051824      -0.04167923       0.04683562
H        1.61706749       6.65063729       1.41122765       0.03486684       0.02325866       0.00760655       0.03549818
H       -0.27919553       8.15948411      -1.17329587       0.01137189      -0.01290406       0.01163004       0.03620468
H        1.03578131       7.09209802      -0.69344909      -0.01655924       0.01796159      -0.00414226       0.03582423
H       -0.28279664       7.44804977       0.43808375       0.00310395       0.02418132      -0.00825485       0.03494892
H        2.75327990       8.83930373      -1.23241485      -0.00140030      -0.00740650      -0.02345396       0.03533723
H        2.54867452      10.49919865      -0.69112992      -0.02100762       0.01455936       0.00551168       0.03529940
H        1.41334379       9.81148146      -1.85305156       0.00886457       0.00108847       0.00692422       0.03672206
H       -0.50097411       9.81506562       1.39972746      -0.00339725      -0.00336190      -0.00630627       0.03419026
H       -0.55689769      10.37995391      -0.27304057       0.00913368      -0.00631230      -0.00085368       0.03653870
H        0.58876398      11.08836661       0.86067846      -0.00969321      -0.01756314      -0.02250719       0.03485396
H        2.62483853      10.82588695       1.57436215      -0.01251725      -0.02848508       0.00313872       0.02711289
H        1.99289620       8.11868742       6.11934057       0.00664880       0.00813423      -0.01143283       0.02480834
H        1.04560234       7.96149247       8.37307183      -0.01975531      -0.00137836      -0.02199868       0.01727326
H        2.49771526       7.46426475      10.30585161       0.00133682       0.01846184      -0.00151547       0.01851622
H        4.91012670       7.18088798       9.98965028       0.03108323       0.00029274       0.00472976       0.01922054
H        7.07697355       6.96168789       9.54270301       0.02693601      -0.00369224       0.02729257       0.02437009
H        9.39339170       6.72613942       8.71204787       0.01645162      -0.02621633       0.01733492       0.01987470
H        9.83922729       6.84682054       6.24452315       0.01746102      -0.00322415       0.00437955       0.04044853
H       10.15548104       6.99311298       1.05576759       0.02308299      -0.00455969      -0.01550482       0.03166053
H        8.85287219       7.38892909      -1.02385150       0.00585534      -0.04095879       0.00710092       0.01990984
H        6.46177734       7.88032823      -0.93477921       0.00471665      -0.01338283       0.00173989       0.01643017
H        5.25912537       8.01018127       1.22328464       0.01122816      -0.02375157       0.00873787       0.01988159
