88
Properties=species:S:1:pos:R:3:forces:R:3:charge:R:1 energy=-3550.025596604752 free_energy=-3550.025596604752 dipole="-0.9153544874777481 0.234254589831373 0.11506413350395632" pbc="F F F"
C        4.99848922      11.29274273       7.83981530       0.00706506      -0.01802653      -0.01452990      -0.11716536
C        6.06597487      11.45181230       6.75464512      -0.00550978      -0.01604575      -0.02009672       0.04493145
C        7.26451689      10.54644918       7.00080336       0.00726303      -0.01185186      -0.01800082      -0.11678129
N        5.44086757      11.24584356       5.45600111       0.00308228      -0.00278024      -0.02667141       0.00920489
C        5.05874148      12.32205102       4.70056207      -0.01922938      -0.02678273       0.00391065      -0.01847492
C        4.31779936      11.85971034       3.66439233      -0.01199904       0.01090576       0.03609261      -0.01672570
N        4.25808031      10.50597418       3.80923521       0.01918547       0.03847754      -0.00311720       0.02913187
C        4.96751772      10.09894867       4.90966982      -0.02206455       0.03159190       0.00182608      -0.00278023
Ir       5.04628337       7.91821689       4.95330679      -0.00310094      -0.02152288      -0.00440329       0.01645418
C        4.27303135       6.03122217       4.51566963       0.01474824      -0.01479225       0.00989596       0.01468791
N        3.31841617       6.02661231       3.53878253       0.00883354      -0.01444027       0.02550809       0.03059041
C        2.85435078       4.75824113       3.34151074       0.00443396      -0.01759942       0.01818103      -0.02030997
C        3.52973979       3.95911595       4.20660303       0.03894540      -0.00757419      -0.00269482      -0.01650200
N        4.38760540       4.75113440       4.91929592       0.01243418       0.00404209       0.01507903       0.01487945
C        5.39475431       4.28663913       5.85529953       0.01680847       0.01772343      -0.00864855       0.03590218
C        6.61362827       3.79717519       5.07133313      -0.01504649      -0.00328144       0.00212995      -0.10987273
C        4.85405377       3.22131198       6.80340623      -0.00587382       0.01676266      -0.01619291      -0.11493912
C        2.99340461       7.24646466       2.94392020       0.02555184       0.00921163       0.00769101       0.04185976
C        2.14534702       7.47555018       1.85936551       0.00380103       0.01960727       0.03365087      -0.06498035
C        2.00816767       8.77091108       1.36939399       0.00480274       0.00171952      -0.02074278       0.00509733
C        1.12553735       9.08612059       0.17012330      -0.01458303       0.00841652      -0.01040012       0.02643964
C        0.35506515       7.86358237      -0.33939636       0.00348684       0.01600185       0.00312884      -0.10707048
C        2.01552642       9.59544793      -0.97283924       0.00420189      -0.00327465       0.00379761      -0.10436801
C        0.10333489      10.16248532       0.56417874      -0.01232936      -0.00752622      -0.00744086      -0.10561683
C        2.71003303       9.82413279       1.96563873      -0.02191848      -0.01384143       0.01166545      -0.06196754
C        3.52570939       9.57371702       3.06448362       0.01365512       0.01829448      -0.01302131       0.04393804
C        3.67446557       8.28865603       3.56031980      -0.01215809       0.02252856       0.01602813      -0.07102768
C        4.01250276       7.78028024       6.73707801       0.00048854       0.00068132       0.02254689      -0.03525217
C        2.65517949       7.92033822       6.95226409      -0.00952166       0.00174449       0.00068792      -0.03765720
C        2.10743984       7.82821625       8.22995742      -0.01509926      -0.01065969      -0.00441083      -0.04672065
C        2.92726680       7.55900596       9.31827617      -0.00540415       0.00281853      -0.00367290      -0.03867799
C        4.28069684       7.39923174       9.14001730      -0.00220256       0.00486453       0.02560770      -0.04661135
C        4.85406422       7.50270700       7.86129796      -0.01835164      -0.00802254       0.02360741      -0.01360063
C        6.25416343       7.32530278       7.59918080      -0.00814413      -0.01267011      -0.00774547       0.05171159
C        7.29042699       7.05475396       8.48944425      -0.01992572      -0.00507500       0.00253590      -0.04705370
C        8.58560183       6.91178449       8.02227406       0.00610109      -0.00997675      -0.00002021      -0.04298446
C        8.85038876       6.99152713       6.64443218      -0.01206995      -0.02314137      -0.01022445      -0.05128539
C        7.80164743       7.25198864       5.79005013      -0.01001885      -0.00845666      -0.02508193       0.06382624
N        6.54835065       7.45189311       6.25979052      -0.03374820      -0.00213213      -0.01464468      -0.15992957
C        7.86050681       7.32761932       4.34988758      -0.00152814      -0.02374337      -0.00944844       0.14116520
N        8.91084758       7.11970156       3.58043860       0.00491316       0.00994064      -0.01893797      -0.32567014
C        8.43568027       7.26268314       2.30613934      -0.00139129       0.01759917      -0.00678616       0.06603465
C        9.09662313       7.19475660       1.08926850       0.00933064       0.01612448      -0.01167364      -0.04762230
C        8.36066109       7.41731227      -0.06187530      -0.02080015       0.02927588       0.00031931      -0.04085364
C        6.99719535       7.70384399      -0.01219561      -0.02326399       0.01463868       0.02943037      -0.04354378
C        6.31467868       7.77877480       1.18875244       0.00111883       0.00499507       0.04640914      -0.05146201
C        7.03902895       7.56014422       2.35597568      -0.00280574       0.00189796       0.02803221       0.04934793
N        6.69224423       7.61345422       3.66926320      -0.00143487       0.02838503       0.01632501      -0.19178396
H        4.58474361      10.28756220       7.81011014       0.01509435      -0.01419643      -0.00022040       0.06584707
H        4.18912069      12.00610916       7.68745124       0.03296423      -0.03036022      -0.00110750       0.04059808
H        5.43241550      11.46497199       8.82049198       0.01877731      -0.00363554      -0.00612848       0.05236197
H        6.42104579      12.49050697       6.75268610      -0.03877310       0.01053688      -0.02504041       0.04268579
H        6.94323907       9.53613862       7.21532152      -0.02282880       0.00958788      -0.03113227       0.07408979
H        7.82345985      10.91155823       7.85807922       0.00229646       0.02351868       0.01731855       0.04519040
H        7.92975130      10.53137705       6.14058434      -0.02851714       0.00802341      -0.02793618       0.04605968
H        5.33399262      13.32526454       4.95379855       0.00813463       0.00350225       0.00893073       0.04515870
H        3.83456172      12.38088109       2.86518051       0.02389633       0.02791059      -0.00564762       0.05087968
H        2.09260831       4.52247146       2.62848361      -0.00253306      -0.02522619      -0.00988515       0.05451651
H        3.46077906       2.90218337       4.35557361      -0.00136762      -0.00346489       0.00159679       0.05433089
H        5.68243794       5.16090760       6.44422780       0.00279410       0.00570853       0.01177692       0.07558668
H        7.40404437       3.50016001       5.75543660      -0.01840166       0.00762220      -0.01313124       0.05310340
H        6.35184621       2.94741216       4.44310428       0.00744647      -0.00198668       0.01477863       0.04393426
H        6.99175493       4.59602230       4.43616408       0.00917238      -0.02718013       0.02129742       0.05352290
H        3.94376895       3.56662994       7.28688792      -0.01552498       0.03451764      -0.00789438       0.05026179
H        5.59715079       3.02708383       7.57215309      -0.01451840      -0.00519342      -0.00160258       0.05420080
H        4.64680026       2.28577061       6.29014570       0.01334356       0.00052982      -0.04167365       0.04683557
H        1.61706803       6.65063747       1.41122476       0.03486843       0.02326156       0.00761870       0.03549818
H       -0.27919641       8.15948440      -1.17329558       0.01137335      -0.01290695       0.01163240       0.03620471
H        1.03578070       7.09209790      -0.69344866      -0.01655858       0.01796700      -0.00414699       0.03582419
H       -0.28279582       7.44804998       0.43808451       0.00309794       0.02418391      -0.00825535       0.03494893
H        2.75327996       8.83930405      -1.23241461      -0.00140197      -0.00740750      -0.02345666       0.03533723
H        2.54867381      10.49919935      -0.69113220      -0.02100627       0.01456075       0.00551872       0.03529932
H        1.41334371       9.81148141      -1.85305268       0.00886224       0.00108236       0.00692449       0.03672204
H       -0.50097418       9.81506537       1.39972653      -0.00339794      -0.00335507      -0.00630335       0.03419032
H       -0.55689804      10.37995515      -0.27304102       0.00913564      -0.00631548      -0.00085288       0.03653868
H        0.58876400      11.08836745       0.86067742      -0.00969502      -0.01756412      -0.02250198       0.03485398
H        2.62483661      10.82588610       1.57436281      -0.01251097      -0.02847334       0.00313743       0.02711289
H        1.99289641       8.11868711       6.11934310       0.00665209       0.00812802      -0.01143487       0.02480836
H        1.04560464       7.96149304       8.37307459      -0.01976061      -0.00137770      -0.02199919       0.01727323
H        2.49771719       7.46426420      10.30585341       0.00133963       0.01846450      -0.00151620       0.01851622
H        4.91012786       7.18088545       9.98965082       0.03109363       0.00028827       0.00473986       0.01922057
H        7.07697532       6.96168643       9.54270328       0.02693733      -0.00368958       0.02728644       0.02437014
H        9.39339359       6.72614448       8.71204608       0.01646254      -0.02622319       0.01735295       0.01987474
H        9.83922886       6.84682518       6.24452103       0.01745680      -0.00322138       0.00439133       0.04044863
H       10.15548297       6.99311004       1.05576820       0.02307329      -0.00455897      -0.01550641       0.03166051
H        8.85287509       7.38892641      -1.02385147       0.00584807      -0.04095526       0.00710527       0.01990982
H        6.46178054       7.88032845      -0.93478057       0.00471631      -0.01337943       0.00175048       0.01643016
H        5.25912779       8.01018429       1.22328436       0.01123092      -0.02375428       0.00873680       0.01988158
