94
Properties=species:S:1:pos:R:3:forces:R:3:charge:R:1 energy=-3785.2019973326856 free_energy=-3785.2019973326856 dipole="-0.7614716787499853 -0.023846907577998688 -1.1889567724134318" pbc="F F F"
C       -3.72390732      -4.73544996      -0.45562422       0.01431587       0.01520750       0.00389202      -0.10452621
C       -2.44881392      -4.08769834       0.07059462       0.02029577       0.01941941      -0.00567494      -0.05720849
C       -1.63123067      -3.40948039      -1.02624263       0.00838452       0.00557665      -0.00435589      -0.06016933
C       -2.29274099      -2.13315497      -1.55679742      -0.01187279      -0.01247456       0.02180858      -0.01294866
N       -1.42581305      -1.46557829      -2.49143787       0.01066060      -0.01239206       0.02024017       0.01176486
C       -1.15693920      -1.94869110      -3.74616424       0.00725305       0.00014679       0.02145046      -0.02040630
C       -0.25938154      -1.11271604      -4.32154846      -0.01727525       0.01059773      -0.00756421      -0.02077303
N        0.00098442      -0.13785285      -3.39927133      -0.00557414      -0.00127603       0.01496253       0.01365320
C       -0.71947536      -0.34193861      -2.25241021       0.00788928      -0.00617992       0.01585653      -0.02367262
Ir       0.16626636       0.69102560      -0.52919020       0.00001996       0.01586556      -0.00730553      -0.08828352
C        1.39961779       1.15815387       0.94222219      -0.03500424      -0.00010243       0.01276175       0.04433967
N        2.16336774       1.43087510       1.75888765       0.01290431      -0.01710532      -0.01021555      -0.29959281
C       -0.01268530       2.82854296      -0.16323166      -0.00327394       0.00142194       0.00818678      -0.01082432
N       -0.15035480       3.57651427       0.96589551       0.00831940      -0.00892700       0.01564674       0.01433103
C       -0.91977273       3.21759290       2.12697656      -0.01230649      -0.00887299       0.00411288      -0.01495116
C       -2.35191806       3.76166244       2.07690955       0.01348154       0.01019397       0.01053515      -0.06612901
C       -2.42210512       5.26170618       2.35274378      -0.00043552       0.00240469      -0.00084717      -0.05441946
C       -3.85455112       5.78058238       2.31733560       0.00290470      -0.00910326      -0.00707216      -0.10426907
C        0.58349546       4.72619915       0.86793819       0.02413215      -0.01067343       0.00798427      -0.01260631
C        1.20457433       4.72845271      -0.33438771      -0.01202093       0.00057433      -0.02429028      -0.01973441
N        0.84371336       3.56358654      -0.95711030      -0.00839207      -0.01312551      -0.01367299       0.01346917
C        1.21811170       2.99345051      -2.16180119      -0.00040260      -0.00960024      -0.02220703       0.04987204
C        1.80248625       3.60211946      -3.27460928       0.01503773       0.00682866      -0.00557788      -0.05736898
C        1.89622830       2.88035218      -4.45353782      -0.00394644       0.01530367       0.00743459      -0.03442551
C        1.34902311       1.60762552      -4.58497619      -0.00742596       0.03014852      -0.00047413      -0.06337325
C        0.77293623       1.02277365      -3.45997284       0.00988162       0.00222973       0.01602913       0.04824650
C        0.82096075       1.65666519      -2.22521449      -0.00872337      -0.00697213       0.01126985      -0.06461771
C        0.94799107      -1.23820819      -0.16798118      -0.00463614      -0.00644322       0.00100220      -0.02373677
N        2.14532295      -1.85193391      -0.44249030      -0.00430978      -0.00752124       0.02035122      -0.04064484
C        2.77822917      -1.87556941      -1.73494745      -0.01338926      -0.00126771       0.01953127       0.00940875
C        4.03155007      -1.04297198      -1.82122287       0.01091448       0.00298031      -0.02909148       0.00534931
C        5.17406411      -1.57240358      -2.40407524       0.00687905       0.01016829      -0.01886201      -0.03770594
C        6.31100065      -0.79827119      -2.54942678       0.00310270       0.02392936       0.00703916      -0.02974137
C        6.31402001       0.51314914      -2.10559633       0.01428946      -0.01219729       0.01198832      -0.03025219
C        5.18209729       1.04110023      -1.50625902       0.03106279       0.01127416      -0.00224141      -0.02492551
C        4.04518751       0.26728220      -1.36442230       0.01900367       0.01273014      -0.02315859      -0.02876278
C        2.53578523      -2.62001685       0.62364665       0.00993726      -0.00531429       0.00197350       0.02537010
C        3.63638902      -3.42513597       0.87082844       0.02138582       0.00300666      -0.01005019      -0.05219932
C        3.65095796      -4.05449113       2.11822390       0.00536775      -0.02068003      -0.02859567      -0.05330410
C        2.60713098      -3.87996352       3.00779957       0.00391444      -0.03114337      -0.01810183       0.04430737
N        1.52705082      -3.12545775       2.77751393       0.01208751       0.00743476      -0.00878274      -0.27667169
C        1.52814483      -2.50903167       1.60845079       0.00176328      -0.00250644      -0.01290443       0.13030479
N        0.58681911      -1.66491202       1.09574895      -0.00324375       0.00628512      -0.00491073      -0.01770168
C       -0.61914571      -1.19651758       1.61384322       0.00271252      -0.00009123       0.01597872       0.05592774
C       -1.26526638      -1.82158913       2.66800962      -0.01289870      -0.00000256       0.00457196      -0.06127822
C       -2.51717516      -1.38439503       3.06919358      -0.01643299       0.00396021       0.00119358       0.00113092
C       -3.22401411      -2.06267934       4.20355615      -0.00072635      -0.00151433       0.02159634      -0.10689930
C       -3.11725654      -0.32149924       2.38938565      -0.00277241       0.00546401      -0.00862025      -0.00624126
C       -4.48451106       0.15269898       2.78156595      -0.00655236       0.00562550      -0.00866577      -0.10612484
C       -2.43677724       0.30332775       1.34493368       0.01365416       0.01543149       0.00173760      -0.05195813
C       -1.16955954      -0.09033702       0.94496101      -0.00687950      -0.00719937       0.00293730      -0.05572530
H       -3.49332787      -5.46026865      -1.23364163       0.01049957      -0.00881276      -0.00504040       0.03445732
H       -4.39656875      -3.98914761      -0.86977649      -0.03250093      -0.00444742       0.02273861       0.03338960
H       -4.23983758      -5.25387869       0.34815988      -0.02155305       0.01078321       0.00115964       0.03818243
H       -1.82787499      -4.85359510       0.54025036      -0.00860231       0.00196235      -0.01160978       0.03873005
H       -2.69288076      -3.34870384       0.83631383      -0.01103502      -0.01476411      -0.00443078       0.04267027
H       -1.46650958      -4.10721666      -1.85158144      -0.01530218      -0.01501072       0.01248911       0.03491609
H       -0.65538102      -3.13552346      -0.62170934      -0.00997404      -0.00368899      -0.02114135       0.04098457
H       -3.23730090      -2.36653257      -2.05751269       0.02062283      -0.01270911      -0.00180287       0.04973102
H       -2.48479303      -1.44846208      -0.72827402       0.00558901       0.00224080      -0.00436965       0.07879696
H       -1.63404136      -2.82273726      -4.13963236       0.00342263      -0.01127469       0.02183903       0.04171858
H        0.20551384      -1.14496324      -5.28442725      -0.00351742       0.01355473      -0.02622017       0.04195170
H       -0.94312832       2.12803365       2.18716902      -0.00136814      -0.00564534      -0.00248987       0.08070197
H       -0.41017109       3.60291580       3.01482510       0.01190783      -0.00583343      -0.03142264       0.05593605
H       -2.94046633       3.22709775       2.82460790      -0.00869246       0.01728463      -0.01782026       0.04726129
H       -2.77749677       3.55164750       1.09387547       0.01209021      -0.01212837       0.00962224       0.04684437
H       -1.99021419       5.46542613       3.33645636       0.00031864       0.00971388      -0.02987198       0.03119953
H       -1.83116190       5.79583044       1.60522537      -0.01402505       0.00745110       0.01166661       0.03303108
H       -4.29805418       5.61084664       1.33887737       0.00046339      -0.00399101      -0.00862936       0.03520935
H       -3.87555118       6.84809355       2.52244526      -0.01740815       0.00413938       0.00444851       0.03572594
H       -4.46620838       5.27449235       3.06128163       0.01826729       0.00045296       0.00237943       0.03571478
H        0.62638630       5.44378157       1.66123838      -0.02023367       0.00809007       0.00433371       0.04763762
H        1.87271336       5.43818367      -0.77526538       0.00075155       0.01238931      -0.00422106       0.04431582
H        2.15677518       4.62103160      -3.22905296      -0.01133673      -0.00478633       0.00505616       0.02621823
H        2.35255778       3.34439988      -5.31654068      -0.00677211      -0.02237641       0.02394036       0.02830836
H        1.34849243       1.10880910      -5.54249946       0.00390983      -0.00260407       0.02068058       0.02144312
H        2.04817375      -1.50493695      -2.46182126       0.01400872       0.02370206      -0.00719702       0.05294117
H        3.01184063      -2.91664851      -1.98861904      -0.00170284      -0.01022177      -0.00272625       0.04082370
H        5.17044976      -2.59434932      -2.75706228       0.00700721      -0.01656790      -0.00582346       0.02488866
H        7.19158436      -1.22112383      -3.01166640      -0.00086272       0.02112832       0.01297282       0.03108540
H        7.19996980       1.11995957      -2.22415381      -0.01152121       0.00195199       0.01111538       0.03196271
H        5.18449174       2.06119782      -1.15097653      -0.01881470      -0.02150811       0.00238139       0.03617709
H        3.16405234       0.68361327      -0.89715996       0.01313003      -0.00689113      -0.00435509       0.05448634
H        4.43854704      -3.54932086       0.15971077      -0.00392609       0.02022107       0.00573805       0.01997829
H        4.48510498      -4.68425792       2.38859562      -0.02257897       0.00233041      -0.00088468       0.02497022
H        2.61429280      -4.37177716       3.96968552      -0.00402918      -0.01514463       0.02057853       0.02820884
H       -0.77291257      -2.64634835       3.15896829      -0.00606028      -0.00950827       0.01453732       0.05916185
H       -3.36778375      -1.37112945       5.03333385      -0.00411566       0.01566708       0.00255783       0.04227958
H       -4.20788470      -2.41450967       3.89392745       0.00758328      -0.01179318      -0.00500666       0.03985254
H       -2.64741644      -2.91062110       4.56200349       0.01863346      -0.00868019      -0.00838592       0.04193471
H       -5.21630537      -0.64685834       2.66515486      -0.00950254       0.00134441      -0.00439292       0.03965544
H       -4.49966569       0.46087090       3.82668288       0.00188810       0.01101539      -0.00040033       0.04064271
H       -4.79297408       0.99358716       2.16597178      -0.00371315       0.01385983      -0.00421713       0.03628753
H       -2.92514696       1.12559842       0.83939731       0.00599462      -0.00241825      -0.01660540       0.03628504
