97
Properties=species:S:1:pos:R:3:forces:R:3:charge:R:1 energy=-3871.3561313049067 free_energy=-3871.3561313049067 dipole="-0.6990447412619927 0.510639334113606 0.7152418461153007" pbc="F F F"
C        0.01132769       3.27487635      -4.95270727       0.02172717      -0.00776047       0.00142377      -0.10334207
C        0.23754541       2.76698900      -3.53517286       0.01152550      -0.01166754       0.01912541      -0.06006829
C       -0.09429143       3.83692423      -2.49850752       0.00330142       0.02003319       0.00165875      -0.06462866
C       -0.24774949       3.27657132      -1.08187935      -0.00058335      -0.00835917       0.00491072      -0.01054488
N        0.94403157       3.30757655      -0.26699256       0.03214967      -0.00413060      -0.01014679       0.00916356
C        1.59910927       4.46189893       0.07174567      -0.00855158       0.01588090       0.01668028      -0.01906091
C        2.43422958       4.18520221       1.10396049      -0.00281742      -0.02289402      -0.00857504      -0.02088783
N        2.26820299       2.85674748       1.39471986       0.01877360       0.00139989      -0.00715477       0.01775783
C        1.36152771       2.29023762       0.52704993       0.01284590       0.00215050       0.02459278       0.00148488
Ir       1.09345193       0.22200596       0.82192512       0.01747669      -0.00099360       0.00317028      -0.10290583
C        3.02460623      -0.22645420       0.71795423      -0.02355611      -0.00909568       0.03447292       0.07013778
N        4.08100952      -0.67553686       0.64714529      -0.01101216      -0.00335467       0.01511868      -0.29040198
C        1.03276843      -1.48730734       2.07679877      -0.01126326      -0.00463847      -0.01428450      -0.00806186
N        0.51095970      -2.73078518       2.16235179      -0.01961290       0.00173994      -0.01612191       0.00782770
C       -0.29068491      -3.36523176       1.14631315       0.00706289      -0.02497145      -0.02008089       0.00402691
C        0.51530870      -3.73998812      -0.10073897       0.01762646       0.00671386       0.00454045      -0.06507651
C        1.42776289      -4.95318809       0.09728700      -0.00191542       0.01087999      -0.02302354      -0.05283508
C        2.75384944      -4.61956959       0.77485027      -0.02272989       0.00122243      -0.01169801      -0.10377816
C        0.88243325      -3.32270845       3.33837387      -0.01950660       0.01000163      -0.02347778      -0.01723995
C        1.65169871      -2.43515761       4.01854627       0.00938602      -0.01942583       0.00580051      -0.01950752
N        1.74094830      -1.31629423       3.23906861      -0.00779693       0.00986230       0.00503764       0.01967434
C        2.38280501      -0.10023841       3.46855822      -0.01458140       0.04267297      -0.00333394       0.04258962
C        3.15569895       0.28655027       4.56689760       0.03124032       0.00076667      -0.00540654      -0.06072886
C        3.70834648       1.56237382       4.57569077      -0.01118637       0.00150552      -0.01579533      -0.03600283
C        3.49329573       2.47981355       3.55674948      -0.03807539       0.00089404       0.00860964      -0.06013420
C        2.69731690       2.09139456       2.47537478      -0.01404043       0.04071072      -0.00469824       0.04111870
C        2.15684626       0.80649566       2.43802952       0.02297704       0.04183990      -0.01166558      -0.04174667
C       -0.95189525      -0.01041183       0.46859303      -0.00006825      -0.00226573      -0.02055781      -0.03698797
N       -2.06441168      -0.22680097       1.24006821       0.00315195      -0.00006119       0.00860241      -0.04699283
C       -2.15554583       0.13613409       2.63165528      -0.00879781       0.00548642       0.02070089       0.01032440
C       -3.49812760       0.74584440       2.93395587      -0.01650401      -0.02311171      -0.01735783       0.00857577
C       -3.99944188       1.74922303       2.11344145       0.01131641       0.01136710       0.00809611      -0.02980513
C       -5.28277137       2.22822572       2.29741850       0.00485234      -0.00024413       0.00767315      -0.02712205
C       -6.07670116       1.71514373       3.30957632       0.01146344       0.01982380       0.01799307      -0.02938743
C       -5.57293816       0.73689188       4.14987328      -0.00027985       0.00527297       0.01198117      -0.02797689
C       -4.29034103       0.25273165       3.96121286       0.00378495       0.01164266       0.00567190      -0.03501036
C       -3.05858639      -0.81341940       0.49560931      -0.01636972      -0.00165711       0.01205740       0.01615980
C       -4.35669347      -1.24535889       0.76545510      -0.01289385      -0.02235535      -0.01640999      -0.06564856
C       -5.04958817      -1.77702940      -0.32859900       0.00350374      -0.01203451      -0.01946750      -0.05585327
C       -4.45747912      -1.86305362      -1.57164874       0.00220212      -0.00335267       0.00126639       0.03912723
N       -3.19872199      -1.48032635      -1.84342164      -0.00602107      -0.02877772      -0.00551468      -0.29765991
C       -2.54324339      -0.97612847      -0.80726484      -0.02917768      -0.00638427      -0.00447418       0.12109453
N       -1.25988172      -0.50339620      -0.77807350      -0.01043059      -0.01309848      -0.01895623      -0.02476436
C       -0.26334623      -0.51907276      -1.75590123       0.02543650      -0.00768197       0.01612305       0.04839985
C       -0.50988845      -0.95746330      -3.04667786      -0.01180020       0.00960994       0.01570276      -0.07097160
C        0.51092956      -0.95103166      -3.98229229       0.00461761       0.02875681       0.01878437       0.00169475
C        0.23729084      -1.47696619      -5.36217895      -0.01422516       0.00698317       0.01775101      -0.10628105
C        1.75224475      -0.42449480      -3.62662170       0.02154985      -0.01615680      -0.01410006      -0.00871675
C        2.86494345      -0.34465601      -4.63123054       0.00930810      -0.00385734      -0.01898063      -0.10988867
C        1.98172730       0.05820107      -2.32533116       0.01389342      -0.00784671      -0.02075856       0.01004357
C        3.29786703       0.73713022      -2.06535711      -0.04511342      -0.00333083      -0.01377153      -0.10913764
C        1.00065009      -0.06857920      -1.34547357       0.03935785       0.00537582       0.00745753      -0.06105265
H        0.22882520       2.49043016      -5.67166008       0.02839871      -0.01007492      -0.01765284       0.03933547
H        0.65020859       4.12881507      -5.16690822       0.00606091       0.01019503      -0.00607646       0.03275615
H       -1.02527166       3.57830565      -5.08576975       0.01277280       0.00731355      -0.00715278       0.03412404
H       -0.39111802       1.89222540      -3.36580211      -0.03227460      -0.00518183      -0.02007735       0.04096799
H        1.27038872       2.44616237      -3.41319768       0.02824213      -0.00358275       0.00581281       0.04385539
H        0.67327259       4.61145241      -2.51254057       0.00777382       0.02737915      -0.00830551       0.04334570
H       -1.03863618       4.30868792      -2.77838881      -0.01387780      -0.01025267       0.00266231       0.04250290
H       -0.57747599       2.23887142      -1.13360944       0.00080017      -0.03854959       0.02547225       0.07924639
H       -1.01360075       3.85436940      -0.54884941      -0.01389688       0.00214554      -0.00277703       0.04475576
H        1.41571476       5.39399418      -0.42100747      -0.01432729       0.00687797      -0.02036317       0.04655757
H        3.11017722       4.82028915       1.63857718      -0.01810395      -0.02018344      -0.00915455       0.04921450
H       -0.74293344      -4.26043783       1.58189237      -0.00665468      -0.00087175       0.01158135       0.04552212
H       -1.09667262      -2.68761873       0.85229541       0.02417153      -0.00103742       0.03326073       0.05208631
H        1.10976434      -2.87448976      -0.40326589       0.00625680      -0.00435283      -0.03190561       0.06697149
H       -0.19837934      -3.94850789      -0.90123732       0.01524981      -0.00262904       0.03998311       0.04403254
H        0.89744048      -5.71795427       0.67329829       0.01918922       0.01581475      -0.00595051       0.02698870
H        1.63914158      -5.38189597      -0.88420986       0.03436187       0.01228627      -0.00814106       0.03606347
H        3.27119686      -3.83417699       0.22841742       0.00620201      -0.02158103      -0.00681543       0.04869797
H        2.61282799      -4.27590464       1.79565616      -0.01564213      -0.02270785       0.00181373       0.03122986
H        3.38772325      -5.50402888       0.80585278       0.00911092       0.03946792      -0.02561584       0.03266493
H        0.57860092      -4.31561885       3.60021950      -0.02235041      -0.00005500       0.00214661       0.04161579
H        2.12426884      -2.51510355       4.97361785       0.02637879      -0.01958553       0.03661086       0.04570073
H        3.34557003      -0.39037340       5.38503505      -0.01828209      -0.01042862       0.00519359       0.02381412
H        4.32446255       1.85658982       5.41309555      -0.00953527      -0.02946445      -0.00864547       0.02972794
H        3.92897590       3.46656295       3.60104845      -0.00807949      -0.03243216       0.01958484       0.02523717
H       -1.34318766       0.84423853       2.83721411      -0.00977341       0.00579762       0.00628784       0.06078081
H       -1.99481804      -0.75245347       3.25849530      -0.03076820       0.01022563       0.01827560       0.03392944
H       -3.38564908       2.14028074       1.31454906       0.00656422      -0.00779556      -0.01105548       0.03181809
H       -5.66902844       2.99189281       1.63881782      -0.00455430       0.01054724       0.01421658       0.03358003
H       -7.08546937       2.07675016       3.44166474       0.00079854      -0.00291121       0.00844448       0.03360770
H       -6.18599933       0.33158531       4.94130531      -0.00696964       0.01902611       0.01002465       0.03311901
H       -3.90630488      -0.52762377       4.60419996      -0.01440825       0.00434399      -0.00309972       0.02756036
H       -4.81640718      -1.17723980       1.73765461       0.04576212       0.01074102      -0.01128699       0.01125004
H       -6.06348064      -2.12457102      -0.19538853       0.02143005       0.01835933      -0.00242985       0.01779755
H       -4.99516465      -2.25881150      -2.42300243       0.00281372      -0.00511867       0.04277368       0.02083297
H       -1.49834872      -1.30979046      -3.29455035      -0.01856462      -0.01679223       0.01310014       0.06308359
H       -0.79011014      -1.82142693      -5.43511374      -0.03966818       0.01357561       0.01059298       0.04214955
H        0.89088880      -2.31804458      -5.59160493       0.00568635       0.01159240      -0.01607110       0.04044471
H        0.39470568      -0.70100829      -6.11026810       0.00217258      -0.02003733      -0.01980179       0.04020245
H        2.65345406      -0.95001697      -5.50499458       0.00964351      -0.02073852      -0.01869999       0.04347171
H        3.01218477       0.68387011      -4.96335162      -0.00105047       0.01098300      -0.00366936       0.03743569
H        3.79764470      -0.68995340      -4.19119197       0.01896579      -0.00335837      -0.01678397       0.04599631
H        4.10680720       0.01018953      -2.02049181      -0.00132561      -0.00171114       0.02356331       0.05628602
H        3.51940558       1.44308914      -2.86366099       0.01711520       0.01670296      -0.01370479       0.03856100
H        3.28600055       1.27386433      -1.12302049      -0.03743440       0.01497373      -0.00535601       0.05208599
