87
Properties=species:S:1:pos:R:3:forces:R:3:charge:R:1 energy=-3467.0871358590043 free_energy=-3467.0871358590043 dipole="-0.04206736094525122 -1.2161007719039059 0.442543772870527" pbc="F F F"
C        5.60965860       2.54859306       0.31972502      -0.00549660       0.01354246      -0.01793881      -0.10410104
C        5.19168512       1.10335616       0.07937168       0.01009457       0.02142893       0.01070288      -0.05196541
C        3.78121578       0.85693872       0.60541839       0.01130280      -0.00620859      -0.00739558      -0.07432857
C        3.31706648      -0.59273498       0.46467497      -0.00082070      -0.00744104       0.00036948      -0.01461995
N        3.08008992      -1.02581968      -0.89055323      -0.01565527      -0.00924669       0.00807277       0.00997480
C        4.04151145      -1.53134624      -1.72523144      -0.00471930      -0.00496642       0.03439966      -0.01903912
C        3.41847450      -2.03453873      -2.81879110       0.02047969      -0.01084024       0.00865991      -0.02160693
N        2.07889256      -1.82587576      -2.63564896       0.00897727      -0.00649309      -0.00024801       0.01129755
C        1.85328904      -1.18097636      -1.44134867      -0.01034822      -0.02105178      -0.00087920      -0.01214097
Ir      -0.11715310      -0.67182782      -1.10019747       0.01783025      -0.00621353       0.01002585      -0.11295992
C       -0.27187826      -0.15236345      -3.32515327      -0.02393249       0.02298483      -0.01321732       0.12399623
N       -0.43198777       0.83470464      -3.91996354      -0.01479500      -0.00407182       0.03103641      -0.31923166
C       -2.21344533      -0.80554133      -1.43387993       0.00741273      -0.01585288       0.00517586      -0.03018786
N       -3.40300784      -0.27951398      -1.06406211      -0.01160368       0.01095453      -0.03187636       0.00781363
C       -3.64967582       0.52399363       0.10441338       0.01540265       0.00803273      -0.01061263      -0.00874243
C       -4.66319760      -0.15389848       1.03393440       0.01944341       0.03137481      -0.00329412      -0.06281683
C       -4.21893533      -1.55899890       1.42970730      -0.00062115       0.02180334      -0.01343685      -0.05439694
C       -5.24108566      -2.25184269       2.31793679      -0.01435495       0.01833845       0.00914962      -0.10253166
C       -4.39938807      -0.68304853      -1.91479372      -0.01649055      -0.01296453      -0.03361402      -0.01599754
C       -3.84095826      -1.49920800      -2.83983140       0.01704783      -0.00864401       0.00409379      -0.01784080
N       -2.50975748      -1.57010442      -2.53788384       0.02935490      -0.00056948      -0.00875317       0.00926840
C       -1.48508007      -2.23424273      -3.21515013      -0.01377962      -0.01289220      -0.03731925       0.03919330
C       -1.54757873      -3.43279645      -3.87494393      -0.00908068       0.02939857       0.00299621      -0.05438776
C       -0.36957786      -4.02425238      -4.35099964       0.00100915       0.02098795       0.01098111      -0.06088891
C        0.88462642      -3.50594442      -4.01800177       0.00774352       0.02368378       0.02168060      -0.05180125
C        0.97980374      -2.31180232      -3.34438717      -0.01113398       0.00661596       0.01414262       0.03388765
C       -0.22048765      -1.56038316      -3.04647264      -0.00491705      -0.00961563      -0.00594923      -0.01804839
C       -0.25486477      -0.87606206       0.97100717      -0.00025071       0.00624744       0.00591237      -0.01384894
N       -0.77687823      -1.83983314       1.79531480      -0.00534048       0.00206958      -0.01341792      -0.02739505
C       -0.85711967      -3.23390835       1.46617785       0.01061963      -0.00321021      -0.00882041      -0.04896469
C       -1.12890246      -1.29280706       3.00233238       0.02329375      -0.01250485      -0.00905441       0.01899353
C       -1.63223030      -1.81639490       4.18495733       0.01345358      -0.00962887      -0.01390613      -0.05178457
C       -1.82260227      -0.89830951       5.21872627      -0.01790898      -0.00190399      -0.02406775      -0.05484434
C       -1.52743895       0.44057479       5.02839404       0.02400673       0.00204117       0.00917865       0.04319450
N       -1.04390638       0.96220619       3.89858428       0.02352365      -0.01435046       0.00335685      -0.26846039
C       -0.84359496       0.09139865       2.92184025      -0.00570689      -0.00547943      -0.01007204       0.12271563
N       -0.32866673       0.30296301       1.67426741      -0.00231100       0.00700891       0.00084184      -0.01336894
C        0.15367489       1.46514893       1.05271892       0.02532451      -0.00022729      -0.00243833       0.04174583
C        0.40528864       2.61978251       1.77417585       0.00704761       0.00258594       0.00423845      -0.06912869
C        0.93944142       3.72086879       1.12770317      -0.01508249       0.01481355      -0.00627444      -0.00131283
C        1.21667216       4.97534040       1.90516229      -0.00565040       0.00362970       0.00125971      -0.10685701
C        1.25788634       3.62879364      -0.22884078       0.02975008       0.00059233       0.01503048      -0.01043988
C        1.84401990       4.82579982      -0.92617090      -0.00202651       0.01073476       0.00482662      -0.10754366
C        1.07650689       2.42207746      -0.92251152       0.00354221       0.00123361       0.02104917       0.00822058
C        1.62558416       2.30469659      -2.31674416      -0.01278095      -0.02804618       0.02009493      -0.10889264
C        0.44452704       1.33626198      -0.31211420      -0.01682936       0.00183667      -0.00872949      -0.08200644
H        4.93942647       3.22179090      -0.20935563       0.00839448       0.00638631       0.00484835       0.03837997
H        6.62475746       2.72330519      -0.02969075      -0.00802399      -0.00147256      -0.00841438       0.03443681
H        5.56339429       2.78823524       1.38021673       0.00696267      -0.01467112      -0.01907126       0.03555172
H        5.89306637       0.43437197       0.58736276      -0.00219856       0.00700589      -0.03128374       0.02597797
H        5.23113777       0.89166309      -0.99123399       0.00130483       0.01533678       0.01517495       0.03390724
H        3.07083284       1.50760099       0.09698936       0.00669546      -0.02361197      -0.01885745       0.06862932
H        3.75204884       1.10598496       1.66794264      -0.01748224       0.00197966      -0.00769427       0.04474132
H        4.06310207      -1.26452921       0.90344679       0.00604639       0.01948693       0.01303913       0.04776967
H        2.37127663      -0.71038726       0.99991368      -0.01330366       0.00564732      -0.01418107       0.07432092
H        5.08161187      -1.51882881      -1.47472345       0.01952951      -0.00241316       0.00805352       0.04404944
H        3.81831499      -2.49705363      -3.69654115       0.00089712      -0.02960381      -0.01444808       0.04233820
H       -2.69601601       0.66807980       0.61491567       0.01421859      -0.01279078      -0.01044049       0.07465045
H       -4.02176925       1.50823018      -0.20009757      -0.01730393      -0.01882284      -0.01559836       0.05234532
H       -5.64174565      -0.20719086       0.55011560       0.02736070       0.02603019      -0.00435707       0.03815462
H       -4.76699309       0.46090613       1.92870779      -0.01105938       0.00557338       0.01511459       0.04463910
H       -3.26982652      -1.48041107       1.95582787      -0.01453677      -0.02242048       0.03041577       0.03850868
H       -4.06102806      -2.16137344       0.53213739      -0.00051318       0.00148022      -0.01458243       0.02711897
H       -5.39522921      -1.68684601       3.23298738       0.00189475       0.01889508       0.03922633       0.03693573
H       -4.90169201      -3.24966440       2.58393056      -0.00970184      -0.01809598       0.00911263       0.03333921
H       -6.19535362      -2.33775400       1.80370212      -0.02907034      -0.02323904       0.00210100       0.03428266
H       -5.41519275      -0.36147824      -1.80976932       0.02199681       0.00466969       0.01203402       0.04019380
H       -4.26415114      -2.00075699      -3.68615175      -0.01187451       0.00389040       0.03404974       0.04015649
H       -2.49282360      -3.93857177      -4.00561573      -0.01633661      -0.01620204      -0.00966574       0.01932979
H       -0.42942755      -4.95138599      -4.89599713      -0.00123192      -0.01214289      -0.02084190       0.01964389
H        1.77258118      -4.07330478      -4.25765958       0.01463664       0.01258921       0.01568557       0.02073144
H       -0.22803230      -3.82794800       2.13401758      -0.00779884       0.01062942       0.01731899       0.05314761
H       -1.88649858      -3.58991816       1.54264894      -0.00167994       0.00172689       0.00669546       0.05566262
H       -0.50971847      -3.35942684       0.44157421       0.00170034      -0.00510432      -0.01725605       0.07459310
H       -1.85303638      -2.86496039       4.30823699      -0.01186614      -0.01244775      -0.01468234       0.02260466
H       -2.20758052      -1.23142231       6.17028159       0.02185384      -0.00046514      -0.01170466       0.02702641
H       -1.66753377       1.15318359       5.82851173      -0.02653444       0.01877029       0.00018293       0.03093068
H        0.18386292       2.64291501       2.82903595      -0.00834157       0.00217337       0.02151734       0.05352524
H        0.55904087       5.78554393       1.58755700       0.00974829      -0.01469965       0.00261966       0.03862329
H        2.24639637       5.29748272       1.75492705      -0.01207449       0.01565987       0.02267300       0.04019718
H        1.05725163       4.80740606       2.96722450      -0.01538170      -0.02035780      -0.00785421       0.03864767
H        1.64858676       4.79379506      -1.99310496      -0.00834858       0.01860789       0.00151281       0.04607806
H        1.41801317       5.74446651      -0.53188204      -0.02058185       0.00730985      -0.00080152       0.04059368
H        2.92445871       4.87202192      -0.77275491      -0.00442166      -0.01294999      -0.01972218       0.03143684
H        0.91537993       2.69085109      -3.04680265       0.03919075      -0.01085063       0.00434275       0.06225236
H        1.79867548       1.26030849      -2.55691167       0.00020468      -0.00993436       0.00207067       0.04370496
H        2.56991635       2.83594620      -2.41678804      -0.01799322       0.00893086       0.00770763       0.03302330
