84
Properties=species:S:1:pos:R:3:forces:R:3:charge:R:1 energy=-3380.136049307093 free_energy=-3380.136049307093 dipole="1.2774961786655725 0.24835060486293814 -0.3856659079994649" pbc="F F F"
C        1.76038688      -3.93710450       0.84435146       0.00837302      -0.01276884      -0.00740544      -0.09653730
C        1.89453444      -3.98775843      -0.67141774      -0.00064749      -0.01212830       0.01009546      -0.05742184
C        3.00078960      -3.08544883      -1.21710318      -0.01629532       0.00341451      -0.00433488      -0.06108602
C        2.71132151      -1.58683740      -1.12760255      -0.01502910       0.01354627      -0.00306704      -0.01115962
N        2.81522985      -0.97879947       0.18139433       0.00668712       0.00001220       0.01341897       0.00133406
C        3.77123544      -1.28480441       1.11650515       0.00505464       0.01562784       0.01467990      -0.01413834
C        3.76679158      -0.30963410       2.05588069      -0.01568032       0.00005270      -0.01706479      -0.02249075
N        2.81092188       0.59295845       1.67275173      -0.01417928      -0.00959630      -0.00278862       0.01070513
C        2.19359889       0.18583592       0.51062242       0.01392961      -0.03374648      -0.01242782      -0.03096447
Ir       0.20964071       1.15158951       0.32785866      -0.04161739       0.00723210      -0.02196781      -0.09257124
C       -1.67064146       1.61198932       0.68027847      -0.01712671      -0.02812321      -0.00827941       0.04999719
N       -2.75246835       1.85691508       0.98844864       0.01988693       0.00580645      -0.00702400      -0.29017335
C        0.06555460       3.08606665      -0.58566940       0.00810047       0.01674035      -0.00503505      -0.00734582
N       -0.63466730       3.72083150      -1.56101688       0.01283478       0.02999824      -0.01013856       0.01310273
C       -1.10871876       3.13315778      -2.78653415       0.00441006       0.00740656      -0.00603568      -0.00617514
C       -2.49055923       2.47609236      -2.70204382       0.00739121      -0.00319321       0.00451594      -0.06759686
C       -3.66063318       3.46021163      -2.62362291      -0.00357604      -0.00623916       0.00431739      -0.05168844
C       -3.95645779       3.94860011      -1.21097996      -0.00435909      -0.00287249       0.01107790      -0.10810580
C       -0.73968844       5.05743236      -1.28499705       0.00610582       0.02221319       0.00022705      -0.01490768
C       -0.10750000       5.29435660      -0.11132252      -0.00303462      -0.01724531       0.01370472      -0.02054852
N        0.37506909       4.08682502       0.31412669      -0.00611212      -0.00486096       0.02627773       0.01508516
C        1.18796970       3.74905069       1.38637349       0.00490375       0.01312871       0.01460746       0.04573925
C        1.88164014       4.59091106       2.26645742       0.00717729      -0.00895990      -0.00200170      -0.06268375
C        2.84799500       4.02957398       3.08584730       0.00024702       0.00403967      -0.00686611      -0.03508437
C        3.21184397       2.68804330       3.00017857      -0.01146234       0.01457504       0.02141413      -0.06892242
C        2.49713279       1.86815213       2.12408101      -0.01121786       0.01964296       0.00843597       0.04754826
C        1.40227783       2.37578258       1.43697583       0.00824029       0.01249156      -0.01356016      -0.06059649
C       -0.11563145      -0.43464456       1.58759663       0.01137268       0.02763167       0.00981791       0.00271072
N       -0.15878148      -0.62964158       2.93973140      -0.02055275      -0.01295963       0.00785769      -0.03139428
C        0.19820852       0.31793973       3.95641019       0.01228337      -0.00917858       0.00088213      -0.03690363
C       -0.69962470      -1.85828359       3.21065604       0.00980873      -0.02031301       0.01203512       0.02163471
C       -0.92691895      -2.55609517       4.38947773      -0.01382426      -0.02184381       0.01490115      -0.05580649
C       -1.48658579      -3.82576570       4.23149741      -0.01107552      -0.01266134      -0.00643957      -0.05308159
C       -1.78326267      -4.31286449       2.97281154      -0.01810373      -0.00736458       0.00439024       0.04133658
N       -1.57259663      -3.65233502       1.82555875       0.01790651       0.00749628       0.01950202      -0.27981474
C       -1.03825706      -2.45152080       1.97613508       0.01972059       0.00927974      -0.00439006       0.12904081
N       -0.67630209      -1.54761129       1.01368515      -0.01149820       0.02619165      -0.00610931      -0.01597470
C       -0.82266517      -1.55824649      -0.37084769      -0.01669024      -0.01318946      -0.00761242       0.05640048
C       -1.33086140      -2.66073461      -1.04021203       0.00089246      -0.02491737      -0.01705366      -0.06198186
C       -1.41674922      -2.66163025      -2.42295452       0.01470915       0.00131493      -0.02209059       0.00327218
C       -1.92657588      -3.87444833      -3.14195166       0.00293964       0.00287030       0.02213713      -0.10750401
C       -0.99036442      -1.53266415      -3.12582035      -0.00643745       0.02084868      -0.00678576      -0.00447179
C       -1.05112197      -1.49275965      -4.62426476      -0.00058816       0.01413939      -0.00396970      -0.10596385
C       -0.48853735      -0.43540605      -2.42764410       0.00288656       0.00729574       0.00855351      -0.04645067
C       -0.40667759      -0.39287648      -1.04309676      -0.01689826       0.01017676      -0.00151014      -0.05514629
H        2.67700590      -4.27790823       1.32288369      -0.01223114      -0.00493093       0.02500618       0.02571494
H        1.54761250      -2.92721110       1.18077125       0.02690231      -0.02020178       0.00605869       0.03029938
H        0.94116929      -4.57395990       1.16911732       0.02143969      -0.00820143       0.00018855       0.04024855
H        2.11663464      -5.01469677      -0.97218749      -0.01055764      -0.00612746       0.01413128       0.03240276
H        0.94384142      -3.70843024      -1.12834122       0.01634563       0.03024578       0.00583366       0.04406702
H        3.12067699      -3.30366247      -2.28094280       0.01038182      -0.01142886      -0.00035967       0.03866390
H        3.94878862      -3.32886195      -0.73326208      -0.01079898       0.02373901       0.01247504       0.03917277
H        1.70450312      -1.38514158      -1.49838882      -0.02399867       0.00349336      -0.00655756       0.07823508
H        3.41845268      -1.06338380      -1.78568790       0.00915336       0.00259092      -0.00869941       0.04386865
H        4.38063089      -2.16180998       1.05247958       0.00961061       0.02534672       0.00742688       0.04339741
H        4.34851948      -0.19718163       2.94816892       0.00216626      -0.00301904      -0.03199264       0.03844802
H       -0.37531194       2.38100237      -3.08492065      -0.00538064      -0.00726757       0.00659601       0.06115502
H       -1.12692273       3.91769184      -3.55016352       0.00053877       0.00723526       0.00766259       0.04723674
H       -2.51947435       1.80401314      -1.84462585       0.02435935      -0.00043715       0.00541370       0.06761808
H       -2.60050280       1.87024670      -3.60396088      -0.00411280      -0.01324757       0.01328140       0.03960372
H       -3.46786729       4.31174208      -3.28309906      -0.01196456       0.00218402      -0.00022180       0.02371339
H       -4.55308375       2.95527618      -2.99914396      -0.00580282      -0.00277018      -0.01386879       0.03300484
H       -4.11642581       3.10339237      -0.54720687       0.00738931      -0.00649486       0.00141238       0.05982484
H       -4.85248908       4.56565766      -1.20785590       0.00321133       0.01510572      -0.00046346       0.02890274
H       -3.13620576       4.53362710      -0.80577496       0.00272793       0.02070312      -0.01003168       0.03206110
H       -1.23264592       5.74041993      -1.94701701       0.00018810      -0.01856410      -0.00850860       0.04586987
H        0.02608313       6.20122544       0.44193381      -0.00670597      -0.01894898      -0.02224691       0.04461281
H        1.68699621       5.65282340       2.29498787       0.01361389      -0.03378882      -0.01472347       0.02392198
H        3.39029629       4.67092993       3.76676545      -0.02795382      -0.02543919      -0.00927051       0.02729019
H        4.04072797       2.30854352       3.57772602       0.00510339      -0.00183651      -0.02173522       0.02020238
H        1.18637994       0.09938375       4.37068854       0.02924470      -0.00122949      -0.00330508       0.04533153
H       -0.53534546       0.27069100       4.76243771      -0.00212358       0.02314681      -0.00384267       0.05777548
H        0.20214961       1.32237565       3.53532849       0.00067872       0.00036255       0.00099716       0.07111091
H       -0.69102095      -2.15532855       5.36265107       0.01104021       0.00361450      -0.00834203       0.01958633
H       -1.68752645      -4.43457175       5.09991084      -0.00534848       0.00855200      -0.01347876       0.02506148
H       -2.21798498      -5.29450888       2.85127812      -0.00396198      -0.02002807      -0.01265490       0.02670998
H       -1.64558125      -3.51308253      -0.45812121      -0.01570022      -0.01189978       0.00382511       0.06465584
H       -1.18565001      -4.24192790      -3.85185052      -0.00623178       0.00911401       0.00354404       0.04144511
H       -2.15191517      -4.66458179      -2.43182502      -0.00048398      -0.02934581       0.01213923       0.04352139
H       -2.83497839      -3.64508407      -3.69764816      -0.00701640       0.02391622      -0.00759168       0.04302506
H       -2.01470657      -1.85084829      -4.98353791       0.01875321       0.00856049       0.00692187       0.04366251
H       -0.27561674      -2.12796487      -5.05674989      -0.03255167       0.00429169       0.00920409       0.03952531
H       -0.90438046      -0.47762022      -4.98681587       0.02787535      -0.01900250      -0.00928435       0.03448063
H       -0.14412690       0.40432405      -3.01459090       0.02234572       0.00099638       0.02617009       0.03135713
