78
Properties=species:S:1:pos:R:3:forces:R:3:charge:R:1 energy=-3315.483731523 free_energy=-3315.483731523 dipole="-0.05709396045338849 0.023285223025450066 -0.9537974215960968" pbc="F F F"
C        5.97859268       2.24783994       1.37005868      -0.03378921       0.00045276      -0.00210212      -0.10381014
C        4.51222748       2.61695679       1.16785918      -0.01597542      -0.00014348      -0.00907229      -0.05614985
C        3.55219951       1.47731616       1.50746618      -0.01147811      -0.00393684       0.00185948      -0.06983366
C        3.56528377       0.32589951       0.49417467      -0.00168581       0.00321561       0.01315886      -0.01037959
N        3.03812084       0.76392256      -0.77362837       0.01117405       0.01465123      -0.00503959       0.02700446
C        3.78869103       1.28975922      -1.79168463       0.01063241       0.02466329       0.01215191      -0.01594894
C        2.93090167       1.74072854      -2.74077441       0.00353142       0.00354769       0.01411627      -0.01530619
N        1.67453265       1.48189066      -2.27769785      -0.00620215      -0.00713813      -0.02996062       0.02837557
C        1.73001136       0.86350960      -1.06167579       0.01565022       0.01720272      -0.02108210       0.02760059
Ir      -0.12883387       0.20118305      -0.35367477      -0.01939833       0.00768276       0.01949638      -0.07014843
C       -0.43650720       1.86834166       0.63176937       0.02717974      -0.03662226      -0.01566095       0.06647253
N       -0.63899594       2.86290470       1.17076152       0.00908025       0.01125325       0.02043150      -0.27121199
C       -2.18714579      -0.12282780      -0.53164484       0.02004218      -0.01665809       0.02563012       0.02355097
N       -3.17782144      -0.80087762       0.06658559       0.00704856      -0.00073343       0.00301872       0.02327965
C       -3.10769482      -1.39478879       1.37741062      -0.00485872      -0.00192919       0.01317603      -0.00973492
C       -4.09393341      -0.72669583       2.33733181      -0.00078862       0.02716857       0.01784157      -0.06338618
C       -3.87064055       0.78144371       2.43332259      -0.01661287       0.02898258       0.01764751      -0.05678089
C       -4.85679810       1.43033202       3.39728305      -0.01176708       0.00272969       0.01198491      -0.10436907
C       -4.31765330      -0.73737322      -0.69032884      -0.01917887       0.02058268       0.00805291      -0.01491145
C       -4.03744473       0.01079785      -1.78485834       0.00267644       0.00759478      -0.00151422      -0.01387724
N       -2.72968522       0.38340537      -1.67505955       0.00988755      -0.01124896      -0.00211571       0.02649685
C       -1.89392563       1.10514502      -2.54355532      -0.01738253       0.00074580      -0.04080065       0.05419881
C       -2.22543695       1.68208529      -3.75911306       0.00459902       0.00636168      -0.02339947      -0.04667129
C       -1.21306756       2.27675077      -4.50222082       0.00955685       0.00543935      -0.01979928      -0.03534768
C        0.11487542       2.26553380      -4.08998417      -0.01051887       0.01159326       0.01317644      -0.04694217
C        0.41438102       1.68358429      -2.86680057      -0.02513957       0.00725165      -0.00331719       0.05340711
C       -0.58758806       1.13661147      -2.07586073      -0.02450747       0.02336568      -0.01697073      -0.07207382
C        0.36769961      -0.91782735       1.33547475       0.02738978       0.01428737      -0.00167333      -0.10081734
C        0.47721275      -2.29962451       0.95539282      -0.03143728       0.00825637      -0.00589728       0.02201947
S        0.64681130      -3.41609888       2.28104813      -0.00208567       0.02962472       0.01044372      -0.10702172
C        0.63330905      -2.06071044       3.41313589      -0.01029485      -0.00760002       0.02058397       0.02774994
C        0.70812975      -2.16838763       4.77842548       0.00415517       0.01138334       0.02699338      -0.04063546
C        0.68617931      -1.00153996       5.54151937       0.00912274      -0.00036123      -0.01227194      -0.04385949
C        0.58598359       0.23601012       4.91654952      -0.02064026      -0.00145261      -0.03467047      -0.03452690
C        0.48918586       0.34179178       3.54467945      -0.01329129      -0.02521520      -0.03816244      -0.04410137
C        0.49787838      -0.81477294       2.74058672       0.02322407      -0.02982381      -0.01099543      -0.00391438
C        0.39782952      -2.68217551      -0.37126530       0.01325828      -0.00327726      -0.00418500       0.08083991
S        0.52862212      -4.33298069      -0.98341781       0.01282976       0.03328185      -0.01048983      -0.13088713
C        0.30530584      -3.70279067      -2.59769751      -0.03337414       0.01891650       0.01508488       0.02429744
C        0.24048512      -4.41762533      -3.77437463      -0.01926751       0.02362198       0.01397649      -0.04465937
C        0.01691509      -3.72734733      -4.95782323      -0.00115522      -0.00631059       0.02998904      -0.04470249
C       -0.12251288      -2.34218500      -4.94479816      -0.00451267      -0.02378492      -0.02179618      -0.03576348
C       -0.04893541      -1.62027674      -3.77472633      -0.01984682      -0.02094335      -0.00482550      -0.06303627
C        0.15384502      -2.29005110      -2.55861062      -0.02963751      -0.00083165      -0.00430891       0.07430245
N        0.20154753      -1.74789167      -1.32905710       0.00879132      -0.03103462      -0.01239716      -0.19310821
H        6.14094111       1.89359539       2.38586610       0.00900309       0.00537915      -0.01647339       0.03878414
H        6.60845422       3.11882921       1.20646132       0.01903165      -0.01155062      -0.00800327       0.03687942
H        6.29623229       1.46717026       0.68102813      -0.01814101       0.02028159       0.02289975       0.02935341
H        4.34984830       2.93847493       0.13714449       0.00655793       0.01848355      -0.01606447       0.03234958
H        4.26923990       3.46708262       1.80777179       0.02160432      -0.02254345       0.02233847       0.04252151
H        2.53145626       1.86239301       1.54922470      -0.01069954      -0.00512571       0.01139572       0.06424370
H        3.80045825       1.07931757       2.49204628      -0.01535063      -0.04091242      -0.01494880       0.05377265
H        4.57550196      -0.05910434       0.34207999      -0.00090527       0.01187312       0.00639870       0.05840657
H        2.92534521      -0.47648375       0.86911680      -0.01283304      -0.00949062      -0.00408036       0.07622138
H        4.85946298       1.29184944      -1.77651457      -0.00241260       0.00329877       0.02461278       0.05609002
H        3.12162994       2.20946840      -3.68497844      -0.00299575      -0.01775548       0.03534924       0.05500647
H       -2.08666259      -1.25246882       1.74135541      -0.00598581      -0.01877058      -0.00541690       0.08364293
H       -3.31908332      -2.46660785       1.30292044       0.00863433      -0.00780866      -0.00058272       0.05241032
H       -3.96482522      -1.17770489       3.32187308      -0.00195096      -0.01156554       0.01058479       0.04933739
H       -5.12022209      -0.92077561       2.01316173       0.02438722      -0.00463045       0.01483982       0.03846464
H       -2.84856522       0.98157619       2.75993557      -0.00169125      -0.01901007      -0.01205114       0.05109537
H       -3.99065897       1.23341452       1.44643094       0.01005821       0.01612006       0.01258152       0.03202113
H       -4.73131047       1.03257032       4.40175544       0.01355381      -0.00784763      -0.00260868       0.03689695
H       -5.88390268       1.24598480       3.08433087       0.02929934      -0.00374907      -0.01019125       0.03180533
H       -4.69913120       2.50514845       3.43233753       0.01886726      -0.01779199      -0.00342079       0.04396150
H       -5.22543747      -1.22442433      -0.40227628      -0.02030213      -0.00308010       0.00845795       0.05474602
H       -4.66454079       0.29584020      -2.60330917       0.01403532      -0.00510775      -0.03664568       0.05391586
H       -3.23689399       1.66505838      -4.13730069       0.00941219       0.02424112       0.00122720       0.03005139
H       -1.46522881       2.74760107      -5.44055261       0.02034275      -0.03245814      -0.01535671       0.03480295
H        0.87931086       2.69222544      -4.72310327      -0.01104032       0.00758602       0.03181362       0.03016016
H        0.77525497      -3.13659875       5.25202541       0.02249074       0.00416729      -0.00754235       0.02815293
H        0.74692858      -1.06695189       6.61688098       0.00425089       0.00112543       0.00263442       0.02391265
H        0.57368761       1.13347934       5.51752121       0.00347834       0.00383852       0.00720862       0.02765881
H        0.39481613       1.30181571       3.06292064      -0.01464023       0.00814433       0.01278121       0.04900163
H        0.34797023      -5.49189862      -3.76583638       0.00987024       0.02240665      -0.00069302       0.03097894
H       -0.05725917      -4.27233144      -5.88622032       0.02058183       0.01583488      -0.00675540       0.02607229
H       -0.30205837      -1.81647722      -5.87234636       0.02596097      -0.01815828       0.00451767       0.02288189
H       -0.16289486      -0.54996264      -3.78225343       0.00252513      -0.04023544      -0.02511219       0.02872143
