77
Properties=species:S:1:pos:R:3:forces:R:3:charge:R:1 energy=-3171.06387948666 free_energy=-3171.06387948666 dipole="1.0024321351814112 -0.16531352071096403 -0.5987408001067153" pbc="F F F"
C        4.76366268       1.20886671      -4.17114883      -0.00380681       0.01196696       0.00572438      -0.10466664
C        4.03510040       1.63989151      -2.90351223      -0.00482969      -0.00489441       0.01147755      -0.05406400
C        3.88160688       0.46338016      -1.94556879      -0.00271031      -0.00230298       0.00568658      -0.06389079
C        3.24942272       0.85916688      -0.60680697      -0.01025700      -0.00742643      -0.00531974      -0.01012740
N        3.16955573      -0.30476185       0.23576565       0.03158599      -0.00582941       0.01073814       0.01881297
C        4.26125900      -0.83643945       0.87180973       0.01015612      -0.02241458       0.01770673      -0.01866652
C        3.90687893      -2.05732587       1.34080115      -0.00146887      -0.01710818       0.00016314      -0.01581992
N        2.60434798      -2.24491770       0.97895989       0.00461177      -0.00521383       0.00008562       0.02247508
C        2.12553138      -1.15458440       0.30326534       0.03220636       0.00714960       0.01813661       0.00376177
Ir       0.00689143      -1.14810345       0.06258028      -0.01521448      -0.03815970       0.02152660      -0.03497247
Br      -1.84969723      -0.69250371       2.17423174       0.00694144      -0.00646174       0.00916123      -0.46728547
C       -1.70603945      -2.27190324      -0.38958390      -0.01031588      -0.01446878      -0.00751565       0.02424929
N       -2.97631363      -2.05069686      -0.77884781      -0.01930158      -0.01134362       0.00126377       0.02418755
C       -3.47696137      -0.74383473      -1.14249503      -0.02563009      -0.00082533      -0.01325902      -0.00764449
C       -4.98603134      -0.71092727      -1.34461525      -0.01609848       0.01131168      -0.00852389      -0.06273431
C       -5.47050493       0.71450249      -1.60405155      -0.00146069       0.00158587      -0.00197839      -0.05481657
C       -6.98379011       0.77355418      -1.77712331       0.01270308      -0.00418882       0.00595766      -0.10418653
C       -3.71716726      -3.19525578      -0.63689783       0.00026039      -0.01618380      -0.00159046      -0.01531176
C       -2.89798989      -4.15861019      -0.15141496       0.00741354       0.01054144       0.01781251      -0.01742503
N       -1.67109039      -3.57898705       0.00090571      -0.00140526      -0.00835862       0.00172892       0.02787029
C       -0.48227401      -4.05025132       0.55626574       0.00306874       0.00757252       0.00956051       0.05817690
C       -0.19965246      -5.33476404       0.99282795      -0.00240156       0.01230252       0.02384158      -0.04759030
C        1.05887215      -5.59347636       1.51829353       0.01188848       0.00564506       0.00947969      -0.03673601
C        2.04551841      -4.61635508       1.57642839       0.00663924       0.01334168      -0.01549510      -0.04942891
C        1.74599700      -3.34577360       1.11033218      -0.01955638       0.01718609       0.00682470       0.05097534
C        0.47120206      -3.03726172       0.64063461      -0.01893225       0.01347020       0.01700055      -0.06512168
C       -0.27440010       0.24291663      -1.50833010      -0.00849160       0.00137922      -0.00936512      -0.06746970
C       -0.54004582       0.10019212      -2.89733995       0.01661820       0.00226587      -0.01343043      -0.04749136
C       -0.85271068       1.26245409      -3.53132112      -0.01258887      -0.00489226       0.00182214      -0.01437457
S       -0.85340329       2.61780903      -2.47834716       0.02369036      -0.02737382       0.01306881      -0.11123950
C       -0.39089912       1.56694505      -1.14310272      -0.00027907       0.02759233       0.01481426       0.00817573
C       -0.11046702       2.08202283       0.16546317       0.01569962       0.01437904      -0.00021006       0.09681053
C       -0.32468865       3.43421516       0.51916533      -0.02094964      -0.00923271       0.00174420      -0.05719640
C       -0.00245118       3.88425528       1.76807934       0.00976178      -0.02277175      -0.00018216       0.02689300
C       -0.24737120       5.30947307       2.15188679       0.00688324      -0.01594433      -0.00400506      -0.10774880
C        0.57389311       2.95976446       2.68625396       0.02785469      -0.01041186      -0.00022186      -0.00788982
C        0.98429854       3.30810987       3.98577607       0.01067761       0.00861574       0.01030597      -0.03581130
C        1.52114951       2.37394290       4.82999873      -0.00149008      -0.01061054       0.00354343      -0.03303519
C        1.66183222       1.04348783       4.41544497      -0.01867821      -0.01812362      -0.00377919      -0.02714858
C        1.27687102       0.66832544       3.15942459      -0.01721586       0.00621162      -0.01252844      -0.03111815
C        0.73599776       1.61133109       2.26163370      -0.02734747      -0.00704665      -0.01036343       0.09481580
N        0.38918279       1.20660442       1.02581456       0.00416999       0.00442839      -0.01782533      -0.17623907
H        5.75548655       0.83157632      -3.92995203      -0.00416356      -0.00345488      -0.00183508       0.03529728
H        4.21051749       0.41911863      -4.67434570       0.00334220       0.01766520      -0.00980724       0.03955571
H        4.87657106       2.04477212      -4.85629783      -0.02814583       0.01146363      -0.00564187       0.03960129
H        4.59613769       2.43964175      -2.41413895      -0.00497774      -0.00262596      -0.00228044       0.03204749
H        3.04879399       2.03091494      -3.15901432      -0.00009697       0.00099329       0.00870407       0.03961030
H        4.86517220       0.02313036      -1.75824290      -0.00183787       0.00372016       0.00259210       0.03789248
H        3.25402748      -0.30289230      -2.40625908      -0.00246060       0.00904759       0.00073752       0.05022624
H        2.24138036       1.23907647      -0.76854778      -0.01271888       0.00158428       0.00017121       0.07819277
H        3.85166866       1.62613822      -0.11007364      -0.01885450      -0.01759431       0.00669926       0.04765437
H        5.19244346      -0.31305283       0.95335018      -0.02099182       0.00751543      -0.03468007       0.04740085
H        4.47229851      -2.78101861       1.89093676      -0.01268425       0.00356041       0.00289437       0.05047530
H       -2.96486948      -0.41287693      -2.05177712      -0.00364980      -0.00035946      -0.01763608       0.05807938
H       -3.20386342      -0.05207800      -0.33706501       0.00202375      -0.00828663      -0.00970591       0.08486149
H       -5.26174287      -1.34568112      -2.19079829      -0.01813437       0.01185090       0.00160116       0.03652546
H       -5.47921131      -1.09158217      -0.44733047       0.00206480       0.02343457      -0.00388669       0.04876121
H       -5.17847622       1.34665360      -0.76326063       0.00762285      -0.00338970      -0.00973745       0.04075907
H       -4.98624203       1.10582609      -2.50149098       0.01382700       0.01065229       0.01582229       0.03334166
H       -7.29552408       0.21837649      -2.65853345       0.00994275      -0.02972660      -0.01518879       0.03406693
H       -7.48423574       0.34814194      -0.91058516       0.00389737      -0.00165796       0.02055374       0.03782541
H       -7.31391825       1.80259526      -1.88864601       0.00217286       0.02457503      -0.01557161       0.03816014
H       -4.75691954      -3.25604289      -0.87859160       0.02115585       0.00807636      -0.01938507       0.05415200
H       -3.09760706      -5.17911463       0.10395049      -0.00465238       0.03025541      -0.01535006       0.05034073
H       -0.93849099      -6.12017948       0.93594928       0.01815037      -0.00458253       0.00518444       0.03288986
H        1.28163067      -6.58575552       1.87960897       0.01593689      -0.00791873      -0.00099359       0.03384181
H        3.02089971      -4.85793742       1.97201689       0.01236431       0.00806410      -0.01109692       0.02903363
H       -0.49079349      -0.84063691      -3.42000949      -0.00516888      -0.01846490       0.01188020       0.02595739
H       -1.09628516       1.40940008      -4.56711946       0.00508909       0.00827140       0.00652026       0.02726079
H       -0.76551555       4.09777185      -0.21084159       0.01480755      -0.02356363      -0.02277426       0.03873265
H        0.69489015       5.81611906       2.35777850       0.01066163       0.00545008       0.01178669       0.04769672
H       -0.86547840       5.36491843       3.04634834      -0.00508834      -0.00852105       0.00235197       0.05262426
H       -0.75412379       5.83356059       1.34552696       0.00390236       0.01487459      -0.00075927       0.04412079
H        0.87391473       4.32792340       4.32023657      -0.01487710       0.02120875       0.00011865       0.03285103
H        1.82714863       2.65532425       5.82707124       0.00470569       0.00576044      -0.00348670       0.02817480
H        2.06621145       0.31326948       5.10076620       0.01026054      -0.01023285       0.00249608       0.03026327
H        1.34898205      -0.35987803       2.83646014       0.01417452       0.02699721      -0.01387887       0.05177242
