75
Properties=species:S:1:pos:R:3:forces:R:3:charge:R:1 energy=-3109.527179863097 free_energy=-3109.527179863097 dipole="0.0564531679968208 -0.05351269322510894 -1.1194159139272872" pbc="F F F"
C        3.94009898      -1.32562737       2.43366721       0.00204772      -0.00259160      -0.01439557      -0.10745352
C        3.13807150      -2.48202024       3.01647581      -0.01884923      -0.00170794      -0.00560831      -0.05781206
C        2.77385779      -3.55267837       1.98841060      -0.01159187       0.00704862      -0.02487401      -0.06329369
C        1.74445701      -3.08374744       0.95331149      -0.03146831       0.00579150       0.00035869      -0.01485055
N        2.33024608      -2.45077602      -0.20347982      -0.00414541       0.00610546       0.01098631       0.02972596
C        3.25066585      -3.06187990      -1.01325774      -0.01166647      -0.01310241       0.00147452      -0.01640124
C        3.53028556      -2.21160595      -2.02993654       0.00586807       0.01716830      -0.00000233      -0.01492864
N        2.76347506      -1.10242095      -1.82583830       0.00052084       0.01960534      -0.00478170       0.02773546
C        2.01280235      -1.23823013      -0.69066032      -0.01476514      -0.00674248      -0.00087463       0.02294619
Ir       0.66057269       0.35812077      -0.36317065      -0.01393163       0.02087588       0.02534018      -0.05832845
C        2.09106853       1.46231246       0.42543276       0.00112749       0.00325125      -0.01841711       0.05488122
N        2.88542969       2.13997975       0.90507161       0.02020197       0.00806933      -0.00380752      -0.27309539
C       -0.37571826       2.06769518      -0.98751967      -0.01037129      -0.01061208       0.00607739       0.01837195
N       -1.45079850       2.80212584      -0.65909281      -0.01825406      -0.01781272       0.01004265       0.01895291
C       -2.33643549       2.50162282       0.43960017       0.00097651      -0.01168985       0.01587248      -0.00298945
C       -1.74783758       2.92420321       1.78612502      -0.00031134      -0.00520959      -0.00310073      -0.06600079
C       -1.74901195       4.43824539       1.97541225      -0.00885842      -0.01427640      -0.01436512      -0.05188280
C       -1.12238484       4.82911242       3.30675054       0.00392224       0.00564797      -0.01512193      -0.10630877
C       -1.61426271       3.82900157      -1.54965656      -0.01355929      -0.02294531       0.01045244      -0.01580478
C       -0.62835177       3.72404644      -2.47536633      -0.02454555      -0.01591433      -0.01642666      -0.01450074
N        0.11726762       2.63583607      -2.12529778      -0.00609877      -0.01861621      -0.00216396       0.02454597
C        1.18333043       1.99442010      -2.77645513       0.01838130       0.00571257       0.01568054       0.05284482
C        1.84046606       2.38627524      -3.93209357       0.01917886       0.00125488      -0.00724565      -0.04717541
C        2.87668588       1.58931425      -4.40423635      -0.00959631      -0.00267287      -0.01341244      -0.03555394
C        3.25740189       0.41407651      -3.76798726      -0.00405837       0.01293273      -0.03107916      -0.04690384
C        2.57363125       0.03792557      -2.62101027       0.01545779       0.02347769      -0.01126909       0.05224280
C        1.53775952       0.81810769      -2.12835326       0.00196455       0.00497763       0.00228003      -0.07108357
C        0.03526073      -0.22033697       1.50925848       0.03158416      -0.02908220      -0.01878857      -0.06774714
C        0.47005907       0.00171821       2.82850130       0.00874057      -0.01435866      -0.01152625      -0.04661746
C       -0.40701899      -0.42151551       3.78024970       0.00243619       0.01158515       0.00740264      -0.03089892
S       -1.83481987      -1.13344220       3.08346801      -0.00666064      -0.00305520      -0.02050139      -0.12427878
C       -1.20495552      -0.91219253       1.46619983       0.01273113       0.03024743      -0.00843524       0.01815459
C       -1.79933010      -1.26622859       0.23572120       0.01719637      -0.01252067       0.00834013       0.03177827
C       -3.02039738      -1.99039748       0.03346868       0.00092595      -0.00010371       0.00084877      -0.00262816
C       -3.83115951      -2.46387375       1.07203996      -0.00576657       0.00006316       0.00412414      -0.05478946
C       -5.01163228      -3.13710908       0.81235530      -0.00840910       0.01200646      -0.00116585      -0.03433925
C       -5.42373792      -3.36872162      -0.49019983       0.01391893      -0.01409692      -0.00899902      -0.03726896
C       -4.63758287      -2.92697466      -1.53827327       0.00280024      -0.00607547      -0.02864482      -0.05050732
C       -3.44256679      -2.24214094      -1.30251351      -0.00920477      -0.00533145       0.00049641       0.01475746
C       -2.62179824      -1.78088174      -2.36544744      -0.00341052      -0.00147876      -0.00027646      -0.07839979
C       -1.46663749      -1.09919848      -2.07955504      -0.00226855       0.00025523       0.00185531       0.04423248
N       -1.05200735      -0.83026921      -0.84811114      -0.01065585       0.01401121       0.00168211      -0.15873753
H        4.26097875      -0.66078082       3.23143773       0.00056228       0.01063028      -0.01561676       0.04181651
H        4.82714789      -1.69029535       1.91976494       0.01437260      -0.01645593      -0.00378804       0.02910223
H        3.34870744      -0.74206881       1.73326014      -0.02592689      -0.00228192      -0.01082511       0.05122992
H        3.72017044      -2.95705181       3.80953592       0.01152039       0.00105866       0.00147144       0.03502227
H        2.22102343      -2.09534146       3.46309259      -0.00400419       0.00992215       0.02547867       0.04318687
H        3.68126356      -3.88993658       1.48374420       0.00232240      -0.00172336      -0.00280878       0.04319060
H        2.35322732      -4.41445936       2.51125980      -0.01213083       0.04187782       0.01869852       0.04267879
H        1.15539976      -3.93964550       0.60521952       0.02012594      -0.02194598      -0.01568723       0.05171717
H        1.05959553      -2.36162932       1.40320324       0.00075224       0.00712535       0.02210265       0.09142907
H        3.61548985      -4.05052311      -0.82671049       0.01819150       0.00142803       0.02144398       0.05589733
H        4.19853070      -2.31562297      -2.85981673      -0.01881890      -0.00317473       0.00466379       0.05611735
H       -3.28733328       3.01034524       0.25801768       0.01044392      -0.00265819       0.02681928       0.05074249
H       -2.51250854       1.42214349       0.44343976      -0.00060302      -0.00289273       0.01427369       0.06855362
H       -0.72832777       2.53749648       1.85585803       0.00223467       0.01773441       0.00825786       0.06677148
H       -2.33681430       2.45644878       2.57669873       0.00650138       0.01035857       0.00809665       0.05049919
H       -2.77900655       4.80476835       1.93703913       0.00706125       0.00456974      -0.00275392       0.02827058
H       -1.19394282       4.91240593       1.16219487       0.01487118      -0.01284956       0.00973407       0.03048841
H       -0.07856927       4.52834293       3.33678399       0.01037007      -0.01607435      -0.00585702       0.04504418
H       -1.17710024       5.90511792       3.44968174       0.01167249       0.01598465       0.02164436       0.03708333
H       -1.64317226       4.34257513       4.12800061      -0.00651707       0.01055165       0.00797305       0.03791409
H       -2.41216774       4.53831837      -1.46279338       0.01115881      -0.01072477      -0.00135919       0.05179440
H       -0.42391741       4.31688018      -3.34256142       0.01053110       0.01905057       0.01766246       0.05313947
H        1.56687765       3.28982725      -4.45659041       0.02453570      -0.00424788      -0.00294109       0.03196308
H        3.40508727       1.89654027      -5.29446896      -0.01101680      -0.01474242       0.00524483       0.03683368
H        4.07105430      -0.17461262      -4.16548380      -0.01564618       0.00107961       0.01525956       0.03301352
H        1.40089209       0.48767721       3.06591627      -0.00378462      -0.00006919       0.02461679       0.03835898
H       -0.34021242      -0.34136009       4.84646852      -0.01426098       0.01178059       0.01411821       0.02355241
H       -3.54577436      -2.31571835       2.09847834       0.00331583       0.01249308      -0.00432577       0.04041053
H       -5.61574628      -3.47792755       1.64025474      -0.00757322      -0.01912537       0.00290053       0.01940275
H       -6.34722742      -3.89510372      -0.68466502       0.01118766       0.01046333      -0.01102562       0.01675930
H       -4.93541004      -3.10958789      -2.56084442      -0.01540905       0.00412693      -0.01847840       0.01521939
H       -2.91793566      -1.94811948      -3.38857415      -0.00429858      -0.01692625      -0.01230843       0.01136309
H       -0.84472768      -0.72097305      -2.88373907       0.01672555      -0.02443380      -0.00071626       0.01084422
