73
Properties=species:S:1:pos:R:3:forces:R:3:charge:R:1 energy=-3015.628834104992 free_energy=-3015.628834104992 dipole="0.5982831468987162 0.12981514719161552 -1.9580210095815829" pbc="F F F"
C        6.13367007       2.31499201      -0.94288649      -0.00689467      -0.00805966       0.03106450      -0.10418067
C        5.35190877       1.93495799       0.31117309      -0.02777572      -0.01179200       0.02185342      -0.05560604
C        3.83869010       1.92750367       0.09932174      -0.01480683      -0.00661641      -0.02297588      -0.06911617
C        3.34118797       0.96566651      -0.98235830      -0.01693876      -0.00972478      -0.00198216      -0.01723276
N        3.31053506      -0.40943720      -0.55397472      -0.00506175      -0.00537260      -0.01902107       0.02135815
C        4.40084694      -1.23943203      -0.51399326      -0.01384056       0.00532932      -0.01756430      -0.02042005
C        3.96168063      -2.47212767      -0.15841463      -0.00539599       0.01454909       0.01562808      -0.01802858
N        2.61203548      -2.36537328       0.00744407      -0.00238471      -0.00712697       0.01357208       0.03107207
C        2.19223756      -1.08473157      -0.21941693       0.01759067      -0.01416687       0.01152713       0.00607563
Ir       0.13794817      -0.79593880      -0.02156958       0.00346247      -0.04456082      -0.00044746      -0.00668683
O       -0.12299215      -1.33191218       2.41886242       0.01358683       0.01878489       0.00667614      -0.39248922
C       -1.21183853      -1.02975662       2.85898865       0.01406428      -0.01507776      -0.00640734       0.27177488
N       -2.26619105      -0.76463961       3.27981194      -0.00528430      -0.01187409       0.03890198      -0.48090772
C       -1.87243034      -1.46069325       0.18692467       0.02352707      -0.01076968      -0.00096848      -0.01109370
N       -3.11725031      -1.01039150       0.39952904       0.01802228       0.01187833      -0.04419227       0.02951286
C       -3.53101540       0.36421940       0.30382520      -0.00459664       0.01080433       0.00516788      -0.00809926
C       -4.77260721       0.52448485      -0.57771375       0.00200510       0.00551078       0.00688237      -0.06436201
C       -4.60391281      -0.09959761      -1.96260022      -0.00135942       0.00310002       0.01280438      -0.05298907
C       -5.86848749       0.05068852      -2.79930418       0.00489623       0.01790436       0.00278726      -0.10340114
C       -3.94419854      -2.03183659       0.78462259       0.02039926       0.01459076      -0.00202991      -0.00691062
C       -3.20321562      -3.16349304       0.79808701      -0.01746714      -0.00008311       0.02173335      -0.01170540
N       -1.93982749      -2.80355293       0.43000307       0.00252456      -0.00638371       0.00783880       0.02680053
C       -0.75870440      -3.55285395       0.43683497       0.01377157       0.00341334       0.01212323       0.06356241
C       -0.61272931      -4.88886656       0.77405290      -0.00164794      -0.00712406      -0.00402744      -0.04754171
C        0.66628115      -5.42856848       0.83688577       0.01187811       0.00285174       0.01643149      -0.03616173
C        1.79895213      -4.66314823       0.59611005       0.00711194       0.01649118      -0.02153965      -0.04836353
C        1.62754072      -3.33036176       0.25670228      -0.01565587       0.01725784      -0.01379570       0.05370226
C        0.35574753      -2.78147231       0.12802343      -0.00394461       0.03273196      -0.00683264      -0.05839609
C        0.48440943       1.10860667       0.84793993       0.01443563       0.01212331      -0.00454742      -0.03519052
C        1.12505957       1.32050919       2.06500436      -0.00443055       0.00827795       0.01409549      -0.02379560
C        1.34966649       2.59296244       2.56422672      -0.04351414       0.01149010       0.01912779      -0.02871659
C        0.96701022       3.70514614       1.82832336      -0.02586398       0.00607552      -0.00859653      -0.03804332
C        0.34303196       3.53190307       0.61306401      -0.00265037       0.00124277      -0.01319064      -0.03815130
C        0.09272859       2.24812301       0.11564957       0.01354564       0.01452964      -0.02424854      -0.00970914
C       -0.55841283       2.03615183      -1.16783657      -0.00787246       0.00120788      -0.00128870       0.08388293
C       -1.32293116       3.00675997      -1.81908361       0.01142143       0.01167185       0.00310821      -0.04464729
C       -1.93050169       2.71458733      -3.02250385       0.00275686      -0.01387498       0.00444473      -0.01905382
C       -1.76237959       1.44052643      -3.55872980       0.00868041       0.00020762      -0.01523580      -0.04529569
C       -0.98555001       0.53247175      -2.86560414      -0.01880161      -0.00347425      -0.01560612       0.04823888
N       -0.40213917       0.80286758      -1.70058978       0.00278001       0.00316942      -0.01042644      -0.13851276
H        5.69602881       3.19577264      -1.40700202       0.02151059       0.02164589       0.00595530       0.03746262
H        7.16471946       2.53878450      -0.68399404       0.03933198      -0.00144194      -0.02063929       0.03756369
H        6.14033321       1.51019923      -1.67495814      -0.00042536       0.00990461       0.00764250       0.02963826
H        5.68198909       0.96127763       0.67707075       0.00929253      -0.00781672      -0.00840657       0.03527929
H        5.56981872       2.66183198       1.09569480       0.00725702       0.00979745       0.00506959       0.03834882
H        3.33713009       1.67101342       1.03332696       0.02889770       0.01664900      -0.00496657       0.05671744
H        3.51097171       2.93010740      -0.18020135       0.03510565       0.02042882       0.00053038       0.04424621
H        2.31662164       1.23415255      -1.24444590      -0.00848706      -0.00575274      -0.00526350       0.07612558
H        3.96577834       1.03967288      -1.87659615      -0.01693014       0.00303146       0.00865209       0.05822037
H        5.38869475      -0.90232027      -0.75217551      -0.01498542      -0.01084221      -0.01264836       0.05366877
H        4.49504764      -3.39097477      -0.02080071      -0.00085208       0.04091224      -0.01215918       0.05328942
H       -3.73135308       0.73391432       1.31518083      -0.00075171      -0.00524581       0.00153828       0.07619832
H       -2.69026876       0.93225168      -0.10189913      -0.02647762      -0.02099057      -0.00411419       0.06161031
H       -4.97932448       1.59088481      -0.68463263       0.00319001       0.00017208       0.01412052       0.04246717
H       -5.63425978       0.07117170      -0.08344043       0.00143052       0.00960127      -0.00706204       0.04410485
H       -3.76402196       0.37637015      -2.47292174      -0.01950203       0.00688578       0.00706177       0.03082468
H       -4.37056308      -1.16193574      -1.86314879       0.00977238      -0.00514980       0.01632725       0.02910890
H       -6.13141649       1.10006650      -2.90857524      -0.00151605       0.02033941      -0.00580537       0.03551698
H       -6.70340030      -0.46222461      -2.32617116       0.00866216       0.00642161      -0.00381024       0.03621580
H       -5.72463002      -0.37164578      -3.79070327       0.00161406      -0.01068375      -0.00272010       0.03563355
H       -4.97245213      -1.88092263       1.03445357      -0.01061977       0.01360159       0.00124443       0.05514060
H       -3.47264794      -4.16681091       1.05084262      -0.01755022      -0.02741802       0.01003812       0.04917321
H       -1.46569048      -5.50359084       1.01613567      -0.02571261      -0.01887133      -0.00039576       0.03231598
H        0.78449626      -6.46392950       1.11778231      -0.00791788      -0.01946049      -0.01492646       0.03433928
H        2.78181394      -5.09906051       0.69471019       0.00235432      -0.00755208       0.00362902       0.03061145
H        1.44527759       0.46918137       2.64740994       0.00897224      -0.01216838       0.01719282       0.06044783
H        1.83040647       2.72291206       3.52387159      -0.00083050      -0.01988797      -0.00633724       0.02775231
H        1.16116629       4.70171773       2.20009142      -0.01205540      -0.02589328       0.00842685       0.02345462
H        0.06272618       4.39985583       0.03231485       0.03058425      -0.00557477       0.00012155       0.02073451
H       -1.44079677       3.97927793      -1.36988412      -0.03603430       0.01123551      -0.01510997       0.04149497
H       -2.52267476       3.45835456      -3.53565023      -0.00289233      -0.03222046       0.00559074       0.03474990
H       -2.21965898       1.16944299      -4.49755556       0.03639423      -0.01129890      -0.01339162       0.03460389
H       -0.81371463      -0.45974147      -3.26256478      -0.00110149      -0.01146972       0.01377147       0.04176811
