74
Properties=species:S:1:pos:R:3:forces:R:3:charge:R:1 energy=-3084.9636036005772 free_energy=-3084.9636036005772 dipole="0.12029700229921789 -0.22413214803857245 -1.7598910372826901" pbc="F F F"
C        4.46756407       3.72941702      -0.12073188       0.03408026      -0.01067634      -0.00257550      -0.10460525
C        3.28435645       2.90943353      -0.62041792      -0.01406782      -0.00348381       0.00841335      -0.05456698
C        3.45888525       1.40807357      -0.40045793      -0.00892737       0.00587216      -0.00769159      -0.06314989
C        3.40624568       1.01844526       1.08019168       0.01285575      -0.01089264      -0.02013933      -0.01028160
N        3.40377476      -0.41492395       1.22740298      -0.01909459      -0.00470153       0.04347073       0.02146276
C        4.49013578      -1.17340974       1.57701753      -0.01143730       0.00193553      -0.02731807      -0.01755807
C        4.09617854      -2.47105513       1.57248920       0.00882565       0.00961842      -0.00396160      -0.01338268
N        2.77875470      -2.47314852       1.21593778       0.01977428       0.00596212      -0.01040850       0.02939734
C        2.33660000      -1.19792054       1.00014276       0.00883888       0.00526806      -0.01429647       0.00889163
Ir       0.29391109      -1.08747091       0.53874945      -0.01818729       0.00740581      -0.00843246      -0.03906305
Br       0.15623956      -1.62633062       3.50295912      -0.01248749      -0.02819239      -0.00436583      -0.43137085
C       -1.61398171      -1.88529819       0.20224326       0.00654489       0.00223596       0.02812369      -0.00096000
N       -2.86957854      -1.51219114      -0.09660426      -0.00545967      -0.01029059      -0.02199894       0.02032209
C       -3.29921296      -0.16213179      -0.36329875      -0.02438828       0.01039395      -0.02983216      -0.00659405
C       -4.44773583       0.30844813       0.53397719       0.02851279      -0.00413787       0.01963771      -0.06074172
C       -3.98540980       0.81998232       1.89772570       0.01889592      -0.00921499       0.03243653      -0.05441937
C       -3.33585980      -0.25350158       2.75995628       0.02852668      -0.02295211       0.00839164      -0.10869445
C       -3.68633215      -2.60911409      -0.18546549      -0.00428583      -0.00924762      -0.00874606      -0.01680801
C       -2.92709663      -3.70219931       0.07063768       0.01472402      -0.00830223       0.00589868      -0.01390849
N       -1.66145496      -3.24832156       0.30378642       0.02117826       0.00367523      -0.00119473       0.02418414
C       -0.47040670      -3.93062016       0.60669638       0.00964639      -0.00162553       0.01607509       0.05698528
C       -0.27609119      -5.29261667       0.77920340      -0.01621348       0.00592694      -0.00111336      -0.04719928
C        0.99534204      -5.74432688       1.11347394      -0.01667971      -0.00167351      -0.00684192      -0.03340485
C        2.07179626      -4.88013260       1.27310390      -0.00977470       0.00839728      -0.01552495      -0.04623664
C        1.85797352      -3.52397604       1.08438348       0.02426768      -0.00496623       0.00805426       0.06103154
C        0.59872548      -3.05122856       0.73136730       0.02810022      -0.01460246      -0.01720987      -0.06349302
C       -0.05719161       0.93498426       0.97976220      -0.00068618       0.01424854       0.00136381      -0.05262361
C       -0.12984969       1.64170702       2.20908119       0.02475540       0.00848466       0.00390141      -0.04146761
C       -0.32859918       2.97821046       2.07604586      -0.02471528      -0.00936193      -0.03309135      -0.01156262
S       -0.45800726       3.46520627       0.43474959      -0.01573956       0.02874753       0.00925050      -0.11734798
C       -0.22398049       1.80257163      -0.09897121       0.01058691       0.01130761      -0.00851513       0.00054274
C       -0.20614600       1.34218260      -1.45466687      -0.00905102      -0.01769293       0.01371616       0.07948446
C       -0.67985593       2.03160430      -2.62278129       0.03562256      -0.01943736       0.00664028      -0.00292449
C       -1.14247035       3.35997350      -2.63282142       0.00693110      -0.02436095      -0.00129653      -0.03658554
C       -1.59753738       3.94436513      -3.78631620      -0.00150922       0.00880440       0.00589990      -0.03032004
C       -1.62440986       3.23163138      -4.98846893      -0.00994055      -0.00488287       0.00240734      -0.02679882
C       -1.17533049       1.93954481      -5.01872850       0.01316997      -0.01078672      -0.00950114      -0.03876101
C       -0.68752365       1.31977943      -3.85435494      -0.00429294      -0.00918120      -0.00291245       0.01936559
C       -0.19632231      -0.00652498      -3.88208616       0.00542335       0.01483914      -0.00264141      -0.05990014
C        0.26822413      -0.55682162      -2.72573160      -0.01422004       0.00108573       0.01056407       0.04545449
N        0.25869496       0.08682451      -1.55222371       0.00022566      -0.02083007       0.00176807      -0.16370285
H        4.61472802       3.59550653       0.94839096      -0.02348336       0.01915309      -0.01600918       0.03469353
H        4.30024716       4.78779075      -0.30705795      -0.00061684      -0.02211637      -0.01249948       0.03825133
H        5.38039911       3.43137411      -0.63359995      -0.00238367       0.00957928       0.00788873       0.03400271
H        3.14854968       3.08955775      -1.68996515       0.01512857       0.00414453       0.03016953       0.03408734
H        2.37496610       3.23857929      -0.11596560      -0.00537195       0.00403451       0.00286809       0.04258562
H        4.40602235       1.07686635      -0.83531887      -0.00807320       0.00908808       0.01372653       0.03469940
H        2.64895589       0.87931845      -0.90676103       0.00445199       0.00166102      -0.01155798       0.05358388
H        4.26597192       1.41663246       1.62051901       0.02382133       0.00037413       0.01564187       0.05456395
H        2.48932557       1.41365955       1.52608118       0.00662868      -0.02876858      -0.01165851       0.07845941
H        5.44198006      -0.73825065       1.80715712      -0.02571373      -0.01309883      -0.00959462       0.04776935
H        4.64229208      -3.36560405       1.79322647      -0.01092702       0.03519237       0.01064682       0.05036998
H       -2.43459239       0.49104036      -0.22905589      -0.01949858      -0.02128924       0.00465379       0.07836776
H       -3.61544551      -0.10880934      -1.41220702       0.00930095      -0.00445970      -0.01962447       0.03933160
H       -5.16063071      -0.50614852       0.67925436       0.00112569       0.01076175      -0.01103021       0.04143232
H       -4.96788859       1.11517123       0.01194143       0.01149934      -0.00659991       0.02059622       0.03718468
H       -3.27702118       1.63857002       1.75610446      -0.01755709       0.01198533      -0.01392273       0.03517720
H       -4.85829493       1.22000045       2.41783112      -0.01295844       0.03197801       0.01949221       0.03138733
H       -3.15844726       0.12446878       3.76347633      -0.02061569       0.00051690      -0.00912231       0.04449503
H       -2.37346138      -0.55015856       2.35261961      -0.02459954      -0.00107501      -0.00287799       0.06493701
H       -3.97289744      -1.13342780       2.83499021       0.00389892       0.02073909       0.00186336       0.02718303
H       -4.72683987      -2.53301172      -0.42717322       0.01572109      -0.01418425      -0.00622550       0.04569988
H       -3.19139460      -4.73932602       0.09987258      -0.00012074       0.01211450       0.00977535       0.04808728
H       -1.08728100      -5.99648752       0.67007884      -0.01848548      -0.01182656       0.01986221       0.02789421
H        1.15016467      -6.80171129       1.27069981      -0.01522088       0.01352976      -0.02039691       0.03317461
H        3.04021012      -5.27022266       1.54841364       0.00067330       0.01268575       0.00528630       0.03001761
H       -0.03489816       1.16503749       3.16827668      -0.00802613       0.02533228       0.00731396       0.06812882
H       -0.42869411       3.72317973       2.84283968       0.01475600      -0.01753976      -0.00690046       0.03343786
H       -1.13685095       3.93871031      -1.72625382      -0.01511998      -0.00370708       0.00277347       0.05721406
H       -1.94017848       4.96717784      -3.76737034      -0.01801858       0.03057583       0.00451555       0.03388213
H       -1.99852326       3.70211854      -5.88551482       0.00526912       0.01162462      -0.00479383       0.03173103
H       -1.18450553       1.37389005      -5.93985452       0.01582431      -0.00310738       0.00958505       0.03019874
H       -0.17878858      -0.55699188      -4.81023416       0.00243381       0.01414611       0.00981182       0.02785018
H        0.67980337      -1.55762054      -2.70167957      -0.00407046      -0.02415941      -0.00666051       0.03143202
