77
Properties=species:S:1:pos:R:3:forces:R:3:charge:R:1 energy=-3290.620489806702 free_energy=-3290.620489806702 dipole="1.2102206057604525 -0.8700596999912934 0.6025235987270287" pbc="F F F"
C       -5.36017028       2.96896650       2.52399703      -0.00272661      -0.00355879      -0.00387504      -0.10499702
C       -4.34407883       1.89343446       2.88451710      -0.00052953      -0.01484420       0.00499448      -0.05178325
C       -3.07613822       2.01673109       2.04289617       0.00354810       0.00128789      -0.01443637      -0.06551702
C       -1.89850210       1.20835293       2.59536132       0.00688335      -0.00243408       0.00545665      -0.00057716
N       -2.03807834      -0.20539731       2.35715353       0.02777187       0.00419874      -0.01652026       0.01986360
C       -2.84120713      -1.03941802       3.09138601       0.00043870       0.02450830       0.00124962      -0.01522636
C       -2.77916396      -2.26621556       2.52246114       0.01131026      -0.00367343       0.02220621      -0.01403433
N       -1.93343937      -2.15436970       1.45792950       0.00234459       0.00562712       0.00759013       0.03052902
C       -1.46469681      -0.87833945       1.34544936       0.01315939       0.00457361      -0.04556478       0.00181659
Ir      -0.25947767      -0.57991740      -0.41576110       0.01350431      -0.00671269      -0.03056712      -0.01759074
Br      -2.93145864      -0.36348124      -1.39274794      -0.00585866      -0.01982095      -0.00606808      -0.41947180
C        0.85832658      -1.32172172      -2.01048188      -0.00224362      -0.02915912      -0.01827326       0.01797867
N        1.81435293      -0.93465515      -2.88108085      -0.00828983      -0.02614384      -0.00421242       0.02304499
C        2.62834929       0.24994565      -2.80597983      -0.01245655      -0.02710578       0.01162428      -0.01228528
C        3.99883184      -0.02824032      -2.17589952      -0.01259893      -0.00704652      -0.01638662      -0.06336916
C        3.92470661      -0.42126539      -0.69481651       0.00259846       0.00695982      -0.02944978      -0.05716684
C        3.81831079      -1.92450242      -0.46337962      -0.01273458       0.01739902      -0.01641087      -0.10028579
C        2.04707589      -1.92341980      -3.80163204       0.00018211      -0.00609733      -0.00435408      -0.01670632
C        1.23659134      -2.96643682      -3.50013812       0.02729445      -0.00005906      -0.00827199      -0.01516297
N        0.53149920      -2.59390936      -2.39371322       0.02227702      -0.01795891      -0.00868689       0.02621794
C       -0.32577911      -3.31543179      -1.55294944       0.00319635       0.02241774       0.00196189       0.05341914
C       -0.78748689      -4.61148732      -1.71893670       0.00967768       0.02623302      -0.00807326      -0.04682513
C       -1.63615341      -5.13306928      -0.75320984      -0.00890063       0.00663549      -0.01661482      -0.03420150
C       -2.04042616      -4.38543771       0.34459987       0.01047491      -0.00782890       0.01156215      -0.04570126
C       -1.57380069      -3.08655751       0.47838621      -0.00836414      -0.01222489       0.03465472       0.06154656
C       -0.67820585      -2.55358912      -0.44261916      -0.01780865      -0.00026305       0.01558442      -0.06103571
C        0.01312386       1.33878597      -1.25229726      -0.01284746       0.03188047       0.01126994      -0.06335685
C        0.63997004       2.31324796      -0.50717217       0.00664666       0.03603193      -0.00095456       0.00610068
S        0.73481094       3.90197473      -1.29167610       0.01668761      -0.00976949       0.02786987      -0.13093648
C       -0.02242754       3.22797715      -2.70669471      -0.00378927      -0.01045285       0.01754996       0.04086902
C       -0.28774870       3.89899901      -3.89053213       0.01007684       0.00286904       0.01777570      -0.04120350
C       -0.83503533       3.19278958      -4.94203810      -0.00405195       0.00385064       0.00798639      -0.03015397
C       -1.09986216       1.82976782      -4.82158670       0.00142556      -0.00135062      -0.00162335      -0.03574709
C       -0.84841800       1.16461256      -3.64423971      -0.01895379       0.00455895      -0.00269601      -0.02401873
C       -0.32643832       1.85642223      -2.54639068      -0.00097158      -0.00748439      -0.00198029       0.00909092
C        1.21726885       2.03662029       0.74958569      -0.02456206      -0.00183104      -0.00069780       0.11901020
S        2.05137867       3.21506702       1.75636058       0.01444727       0.00020042       0.00151041      -0.08295585
C        2.34699846       1.94549690       2.91605652      -0.01455208       0.00006157      -0.00981932       0.02086766
C        3.00971354       2.01853167       4.12784469      -0.03133834       0.00439271      -0.00010783      -0.03916219
C        3.10335888       0.86955338       4.89064997      -0.02581079       0.00373771       0.00371489      -0.03636808
C        2.53785652      -0.32635760       4.45404046      -0.00330304      -0.00797948       0.00680276      -0.03477490
C        1.87578607      -0.40667124       3.24754372       0.01040157      -0.00048049      -0.00641752      -0.04508261
C        1.78107701       0.73539431       2.45579089      -0.00875575      -0.00390047      -0.00828517       0.07432675
N        1.17194470       0.82567059       1.24390288       0.00699917      -0.00103034      -0.02587544      -0.21082110
H       -6.26367502       2.84931685       3.11711870      -0.01617444       0.00938573      -0.01632994       0.03511927
H       -4.95051700       3.95820093       2.71731510      -0.00888818       0.00530591      -0.01072595       0.03414863
H       -5.62374608       2.90512974       1.47161418      -0.00312708      -0.01196744      -0.00533443       0.04431318
H       -4.08597286       1.98974738       3.94316836      -0.00532431       0.00884181       0.01862429       0.02391261
H       -4.79574191       0.91192742       2.73357582      -0.00380047      -0.02182686      -0.01121482       0.03570870
H       -3.27386895       1.69388425       1.01987180      -0.01164128       0.01391741      -0.02359320       0.06888399
H       -2.77547279       3.06542508       2.00910444       0.02831834       0.00278225       0.01100947       0.04463206
H       -0.98290856       1.53311171       2.10088579       0.00030638      -0.02115677      -0.01671087       0.06467279
H       -1.79743793       1.37566227       3.67243032       0.00864726      -0.00098954       0.01965683       0.04137496
H       -3.37949228      -0.70636284       3.95277965      -0.00927585       0.03119458       0.03333090       0.04885050
H       -3.26165589      -3.18169786       2.79205894      -0.01391270      -0.01592494       0.00744823       0.04904441
H        2.75861494       0.64493741      -3.81746689       0.00031451       0.00842320      -0.01824586       0.05091653
H        2.10156188       0.98839379      -2.20465467      -0.02656237       0.01402234       0.01208605       0.07694074
H        4.58497031       0.88630060      -2.28257140      -0.00999370       0.00266067       0.02309501       0.04457225
H        4.50713099      -0.81271722      -2.74101633       0.01684256      -0.01069326       0.01070583       0.04260469
H        4.82142587      -0.06001397      -0.18705329      -0.00150860       0.01373848      -0.00909310       0.03355135
H        3.06220418       0.06471763      -0.23677469       0.02072831       0.00709821      -0.00004459       0.05034451
H        4.65264159      -2.44909313      -0.92542405       0.01774858       0.00749400       0.02222603       0.03053325
H        3.82552400      -2.13008217       0.60436176       0.01809130      -0.02212691      -0.00914630       0.03641228
H        2.89385038      -2.31991725      -0.87210902      -0.01643495      -0.02309746       0.01791267       0.03541348
H        2.76179383      -1.80439831      -4.59042369      -0.01718995      -0.01139861       0.00615899       0.05288852
H        1.10746576      -3.91505327      -3.97956826       0.03725688       0.01867679       0.01200972       0.05610271
H       -0.51291141      -5.19891907      -2.58181719      -0.00830102      -0.01317168       0.00557758       0.03307728
H       -2.01457832      -6.13653431      -0.87320564       0.01416136      -0.01236683       0.01507966       0.03698342
H       -2.72020505      -4.81662471       1.06369028      -0.01627524       0.02440189       0.00572454       0.03433506
H       -0.06261671       4.95003180      -3.98574279       0.01145069       0.01714301       0.02116667       0.03337058
H       -1.05296016       3.69899873      -5.87076956       0.01073424       0.01404021       0.00266056       0.03072825
H       -1.51173529       1.29307195      -5.66317539       0.00178314      -0.00207393      -0.00078535       0.03169196
H       -1.05170559       0.10887079      -3.55833014      -0.02926905       0.01785527       0.02335719       0.05669642
H        3.43037213       2.95154134       4.46957215       0.00866620      -0.00531906      -0.02138132       0.03989607
H        3.61165659       0.90481184       5.84248038       0.00391464      -0.00981430      -0.01450189       0.03626210
H        2.61721759      -1.20495467       5.07630078       0.00435103      -0.01371151       0.00631707       0.03433036
H        1.42763325      -1.32616330       2.90383525       0.01446539       0.00044387      -0.02218120       0.04352434
