69
Properties=species:S:1:pos:R:3:forces:R:3:charge:R:1 energy=-2848.2712855230243 free_energy=-2848.2712855230243 dipole="0.12495508878014842 1.1882566285757976 0.21792022436491704" pbc="F F F"
C       -3.88933445       2.59777141      -2.07254457      -0.00283689       0.00964118      -0.01014645      -0.10171737
C       -3.23768073       1.39932386      -1.39621782      -0.00619948       0.01270953      -0.02017424      -0.04857545
C       -4.19785656       0.21443843      -1.32058765      -0.01781400       0.01639154       0.00315500      -0.06128487
C       -3.67265349      -0.91616724      -0.43164046       0.00219585       0.00228714       0.00562653      -0.00839734
N       -3.37111127      -0.44743817       0.89796071       0.02053188      -0.00565028      -0.01092647       0.01957295
C       -4.28911478       0.08042911       1.76736226       0.01499958      -0.03919514      -0.01131044      -0.01598856
C       -3.61569241       0.47511714       2.87749191      -0.02480038       0.02123271      -0.02441019      -0.01543618
N       -2.29862536       0.18560091       2.65977067      -0.01427962       0.02050857      -0.01370271       0.02319844
C       -2.13930432      -0.38961039       1.43184764       0.00017948      -0.02397579       0.00540651       0.01655235
Ir      -0.17057667      -0.95217188       1.00659893       0.01202429       0.01480203       0.01016672      -0.05668064
C       -0.47441630      -2.69524462       1.87512693      -0.00930949       0.00138583      -0.00217454       0.05537458
N       -0.65464029      -3.70285534       2.39709884      -0.01234919       0.00983459      -0.01926769      -0.27021165
C        1.89317135      -1.03876501       1.43882826       0.00052585      -0.00079887      -0.03299516       0.02442799
N        3.05320266      -1.40113067       0.86571759       0.00827257       0.00728630      -0.00673353       0.02490416
C        3.20106952      -1.87877507      -0.48302250      -0.02357959      -0.02707515      -0.00412152      -0.01497806
C        3.54237492      -0.71257356      -1.41576654      -0.00070381      -0.01359489      -0.01225241      -0.05877245
C        3.53850120      -1.13944194      -2.87944177       0.01272001      -0.01532173      -0.01694451      -0.05509651
C        4.06775073      -0.03661230      -3.78866536       0.00480768       0.00368163      -0.01790839      -0.10229755
C        4.10550990      -1.09919255       1.68630084      -0.01565425      -0.01376869       0.03216458      -0.01860036
C        3.59488236      -0.53578920       2.80986040       0.00205182       0.00211723       0.02103611      -0.01638698
N        2.24050906      -0.49644182       2.64349141       0.00955566      -0.01413873      -0.01307491       0.02782310
C        1.22204901       0.03685840       3.44566325       0.01391213      -0.02441865       0.01001278       0.04866071
C        1.33978590       0.68470759       4.67068080       0.00577812       0.00773057       0.00333017      -0.05241848
C        0.18405709       1.17313606       5.26502847      -0.00237249       0.01141675       0.01319577      -0.03566678
C       -1.06732025       1.04182957       4.67691562       0.00471778       0.00939651       0.01121426      -0.05245672
C       -1.15738370       0.39180216       3.44958441       0.00094053       0.00064488       0.00207609       0.04955711
C       -0.01579261      -0.10909206       2.84057668       0.00189829       0.01468329      -0.01619944      -0.06658938
C       -0.09388089      -1.79925189      -0.88164410      -0.01989048      -0.00219080       0.01564690      -0.07334272
C       -0.27152960      -3.04877360      -1.50232214       0.04031332       0.01947843       0.01021385      -0.04796947
C       -0.44002755      -2.98678198      -2.85649647       0.00458039       0.01096071       0.00303091      -0.03348906
S       -0.37166136      -1.34505035      -3.46211091      -0.00780068      -0.02932394      -0.00330633      -0.13580784
C       -0.05152725      -0.75560756      -1.84830958       0.01446288      -0.00863142       0.01404990       0.01628986
C        0.17339914       0.58708759      -1.50680001      -0.02662069       0.00826301      -0.00581716       0.05052320
C        0.37614849       1.63696422      -2.42541935       0.01128612       0.00174052      -0.00455030      -0.04358757
C        0.65490448       2.89649873      -1.97461423       0.02290809      -0.00640328       0.00937461      -0.03248302
C        0.72188629       3.11606569      -0.57826143      -0.01425556       0.00518660      -0.00571470      -0.06752161
C        0.48017673       2.06183014       0.26952467       0.00227211      -0.00621456      -0.00495089       0.05085456
N        0.20640869       0.82824261      -0.13964001      -0.02532744      -0.00569565      -0.00021229      -0.16127326
H       -3.19278316       3.43153551      -2.11780396      -0.00754842      -0.00563171      -0.00492184       0.03749853
H       -4.77144138       2.91319607      -1.51663153       0.02235722       0.02042144      -0.02618973       0.03144224
H       -4.19413910       2.34839725      -3.08671219       0.00909772      -0.00406359       0.01078225       0.03722928
H       -2.34520525       1.10779637      -1.94995868       0.02069255      -0.00835775       0.00404545       0.04233268
H       -2.92296200       1.68955793      -0.39049190      -0.00294875       0.00201507      -0.01339848       0.02498098
H       -4.36173859      -0.18378971      -2.32314802      -0.00627484      -0.01472061       0.01682639       0.04845343
H       -5.16334524       0.55899584      -0.94174345      -0.00306100      -0.00008880       0.03453990       0.03787329
H       -4.41845731      -1.71416016      -0.37020244      -0.00065214      -0.02798118       0.00996180       0.05467239
H       -2.74966582      -1.33050385      -0.84554076       0.00215097      -0.00144492       0.00301898       0.08222845
H       -5.33352441       0.12619589       1.53329536       0.03041985      -0.00034659       0.03645085       0.05167565
H       -3.97312655       0.92812568       3.77858738       0.00081154       0.00190771       0.00730656       0.05177395
H        2.25257051      -2.33446041      -0.78064357      -0.00183538       0.02209082      -0.02303354       0.08735405
H        3.98625440      -2.63993690      -0.50954822       0.00227405       0.03111122      -0.01247346       0.05501835
H        4.52008121      -0.30475103      -1.14746672       0.03449505      -0.01824470      -0.01266969       0.03544854
H        2.80346733       0.07861909      -1.27474006      -0.00567369       0.00020562       0.02068621       0.04556347
H        2.51849865      -1.39340268      -3.16998742       0.01098015      -0.01520427       0.00337973       0.04640232
H        4.15491547      -2.03369490      -2.99633078      -0.01964694      -0.01035188      -0.03427060       0.03147618
H        3.57214062       0.90837535      -3.57554443      -0.02183777      -0.02807608       0.01196412       0.03797984
H        3.88907455      -0.28512714      -4.83181998       0.01909589      -0.01832584       0.00399463       0.04047819
H        5.13914140       0.09483454      -3.64761035      -0.02453999       0.03869852       0.01863881       0.03278288
H        5.11954411      -1.31842020       1.41983283      -0.02142396       0.01207573      -0.00079655       0.05510951
H        4.08601810      -0.17510269       3.68948657      -0.00143417       0.00900993       0.00157728       0.05581053
H        2.29793905       0.81653605       5.14933255      -0.00186059      -0.00218494       0.02020119       0.02897131
H        0.26371328       1.68321214       6.21374927      -0.01453792      -0.01579031      -0.00095137       0.03343453
H       -1.93951215       1.44649338       5.16738106      -0.01259235      -0.00088813      -0.00218655       0.02835882
H       -0.29764900      -3.98187511      -0.96347339      -0.00126318       0.02565429      -0.00337573       0.03041227
H       -0.63842855      -3.78320535      -3.54657960       0.00865355       0.04117822      -0.00074142       0.02042723
H        0.31199964       1.40933632      -3.47982153       0.01719422       0.00104484       0.01132191       0.02934000
H        0.82925166       3.71246522      -2.66037735      -0.02084578      -0.01821324       0.01222445       0.01687994
H        0.94369586       4.09311239      -0.18112484      -0.01103273       0.00763755      -0.00631398       0.01349036
H        0.49801495       2.21070864       1.34371079       0.01364640       0.00188162       0.00159597       0.01439167
