78
Properties=species:S:1:pos:R:3:forces:R:3:charge:R:1 energy=-3195.681047481346 free_energy=-3195.681047481346 dipole="-0.06652852867361934 -0.1398529432170346 -0.9614403097234843" pbc="F F F"
C        5.45381266       1.95738586       2.05468618      -0.00213489      -0.00916804      -0.00612927      -0.10538509
C        5.27298308       0.48712190       2.41075088      -0.02654527      -0.01505983      -0.00719191      -0.05451498
C        3.86883828      -0.04145444       2.10613803      -0.03798916      -0.02182645       0.00671862      -0.06864292
C        3.67652331      -0.56814189       0.68004571       0.00523274      -0.00347475      -0.01977222      -0.00792575
N        3.48903359       0.45904504      -0.31545723      -0.00167189       0.03361740       0.00014216       0.02645450
C        4.47149133       0.97103311      -1.11957722       0.00533157      -0.00464663      -0.00863921      -0.01548625
C        3.88992183       1.86302858      -1.96051652       0.01785323       0.01719313       0.01368682      -0.01549515
N        2.55882066       1.87726406      -1.65309824       0.01119415       0.00238066      -0.00678323       0.02293091
C        2.30416997       1.00875057      -0.62339498      -0.00365916       0.01379310      -0.02807932       0.00959280
Ir       0.27543745       0.90087292      -0.13922683       0.00648877      -0.01894040       0.00250524      -0.03171379
C        0.40017707       2.72541529       0.61448745       0.01515213      -0.01444038       0.01098758       0.07117705
N        0.47164248       3.78237970       1.05714456       0.00588830       0.00482545       0.00519528      -0.26186514
C       -1.75634502       1.17722925      -0.47101138      -0.01106200       0.00415856      -0.02262576       0.00769588
N       -2.94421694       0.65562816      -0.12482314       0.00327683      -0.01337700      -0.01359857       0.02050304
C       -3.05207570      -0.49411578       0.75041855       0.00724552       0.01959827       0.01087198      -0.00640719
C       -4.43300413      -0.70109011       1.35702319       0.01472666       0.02198941      -0.00836770      -0.06346343
C       -4.84826060       0.41847167       2.30955786      -0.00700855      -0.00638169       0.00426364      -0.05572265
C       -6.26677501       0.18641318       2.81524066      -0.01198058      -0.00839911       0.01108531      -0.10435134
C       -3.94620711       1.25563571      -0.84004149      -0.00119401      -0.01863711      -0.00576860      -0.01508481
C       -3.37137685       2.17179015      -1.66015407      -0.01676256      -0.01171749      -0.00667487      -0.01585197
N       -2.02461630       2.10288293      -1.44356717      -0.01598183      -0.00895511      -0.02463483       0.02307672
C       -0.94572922       2.66871531      -2.14105786       0.00202418       0.02695852       0.02985132       0.05380160
C       -0.95531869       3.55665782      -3.21176442      -0.01105675       0.00493823       0.00626255      -0.04940315
C        0.26042475       3.91906790      -3.78100609      -0.00113330       0.00219775       0.02699105      -0.03313123
C        1.48054264       3.42386215      -3.33493360      -0.00310145      -0.01406846       0.00303529      -0.04960219
C        1.47962754       2.53822842      -2.26138770       0.00571784      -0.01194124       0.01151829       0.05297024
C        0.26904883       2.16800169      -1.69296582       0.00214656       0.00388137       0.01703891      -0.04977540
C        0.38895322       0.28469966       1.87652873      -0.01988682      -0.01790148       0.02616073      -0.05250383
C        0.51943522       0.89765584       3.13413381       0.00171384      -0.00463466       0.01837886      -0.04824800
C        0.57752215       0.00600071       4.16577663       0.01142272      -0.01474253       0.00017417      -0.02816164
S        0.47387249      -1.63762259       3.63095628      -0.00066804       0.00629261      -0.00562341      -0.12137843
C        0.33753084      -1.10141827       1.96800694       0.01488511      -0.01045047      -0.00588048       0.00404498
C        0.14733632      -1.92860342       0.83673422       0.02337258       0.00662260      -0.02855360       0.04944238
C       -0.02420349      -3.31597397       0.87876035      -0.01726623      -0.00239024       0.00816628      -0.06130392
C       -0.33545190      -4.02929561      -0.25028851      -0.00289057      -0.00134200       0.00775700      -0.00804666
C       -0.54081921      -5.51114068      -0.20403244       0.01049605       0.00208597       0.01371821      -0.10059372
C       -0.47183486      -3.31260773      -1.48427958       0.01906596      -0.00994221      -0.00169951      -0.01501342
C       -0.83456490      -3.93189896      -2.68360709      -0.02548124       0.00759762       0.00099609      -0.05294726
C       -0.95485912      -3.21381953      -3.86023966       0.01754684       0.01599301      -0.01115803      -0.04786963
C       -0.68781061      -1.85463206      -3.86530403      -0.00998949       0.02326140      -0.01053578      -0.03911975
C       -0.31957602      -1.21387376      -2.69949140      -0.00764519      -0.00055156      -0.00018680      -0.06822589
C       -0.22278679      -1.90950556      -1.48504235       0.00213111      -0.00742083      -0.00510825       0.07437131
N        0.09023263      -1.23664649      -0.35059073      -0.02804337       0.01443680      -0.00672566      -0.19217316
H        5.33708810       2.12667048       0.98854497      -0.01235064       0.01486506      -0.02929972       0.03250280
H        4.71609471       2.56004245       2.57616753      -0.03356299       0.03217992       0.01481284       0.04249873
H        6.44335108       2.29932033       2.34764282       0.02647065       0.00023182       0.00083391       0.03442454
H        5.46247860       0.36327561       3.47854040      -0.00527774       0.03363818       0.01116434       0.03766658
H        6.01317485      -0.11906690       1.88268522       0.02349748       0.00472396      -0.00484725       0.02922830
H        3.12443221       0.73115064       2.30487618       0.00311202       0.00663351      -0.02961340       0.06590594
H        3.65252262      -0.87593445       2.77424633       0.00942573      -0.02087064       0.01064920       0.05095237
H        4.54129999      -1.16876065       0.38698262       0.01672707      -0.02232601      -0.00586273       0.05283655
H        2.78700410      -1.20311305       0.65828279       0.00226230       0.01488072       0.02014613       0.07414633
H        5.49296385       0.65751984      -1.04791839      -0.00026722      -0.00926761       0.00131944       0.05392550
H        4.31854086       2.47065657      -2.73037813      -0.00599216      -0.01339202      -0.00564169       0.05306990
H       -2.77516439      -1.38382737       0.17000553      -0.01072913       0.01152530       0.02408289       0.05876465
H       -2.30822470      -0.36797107       1.54214727       0.00494671       0.00233530       0.00541435       0.08140584
H       -5.17563313      -0.81171019       0.56302803       0.00084722      -0.00744242       0.01999486       0.04078526
H       -4.40772611      -1.64319742       1.90991705      -0.00414222       0.02360505      -0.03635196       0.04994192
H       -4.78599652       1.38683568       1.80812777      -0.02699682      -0.02044648      -0.01318872       0.03453172
H       -4.15633759       0.44407373       3.15326917       0.00355133       0.00318787       0.00031109       0.04094460
H       -6.57033470       0.97123169       3.50329787       0.01919301       0.00250856      -0.01216454       0.03989461
H       -6.32661539      -0.76844241       3.33335307      -0.01528210       0.01658392       0.01804502       0.03802131
H       -6.97155174       0.16387723       1.98524338       0.01023497       0.02788126       0.02161169       0.03288785
H       -4.97955089       1.00038995      -0.73097896       0.02511129       0.01001927       0.00639904       0.05693425
H       -3.81863587       2.85220250      -2.35446987       0.00669863      -0.02304350      -0.03268234       0.05279349
H       -1.87527489       3.96579297      -3.59952010      -0.01577447      -0.01035205       0.00142275       0.03499662
H        0.25447777       4.61520634      -4.60674102       0.01068706      -0.01438095       0.01124526       0.03960848
H        2.39672226       3.72894552      -3.81647458       0.00599335      -0.00524378       0.00373141       0.03476004
H        0.56652286       1.96362111       3.27703288       0.00718557      -0.02014222       0.02069738       0.03964521
H        0.68763910       0.20192660       5.21405921      -0.00826580      -0.01162412      -0.01506286       0.02844719
H        0.07612238      -3.80488357       1.83716915      -0.01621839      -0.00787465       0.00339856       0.02595849
H       -1.55173000      -5.77259082      -0.52214595       0.03369468      -0.00053073       0.00402961       0.03647103
H        0.16469335      -6.01491730      -0.86571035      -0.02000849      -0.01563717      -0.01401224       0.03776861
H       -0.39045732      -5.88590473       0.80551457      -0.00121602       0.02357162       0.02163963       0.03413323
H       -1.03849100      -4.99107269      -2.69279809       0.01350776      -0.00827120       0.00860091       0.02003249
H       -1.24847398      -3.71399162      -4.77158819       0.00265068      -0.00049311       0.00210393       0.01154489
H       -0.77320296      -1.28625155      -4.78028943       0.01614094       0.00991997      -0.03007327       0.00869142
H       -0.10327336      -0.15250020      -2.71508209      -0.00561462      -0.00836482      -0.00462192       0.01722561
