72
Properties=species:S:1:pos:R:3:forces:R:3:charge:R:1 energy=-2903.817416749752 free_energy=-2903.817416749752 dipole="0.005910184277198366 -0.12158915732080641 -1.256548877013668" pbc="F F F"
C        5.86825195      -1.32520961      -1.12357016       0.00388342       0.00935160       0.00417447      -0.10245685
C        4.38053899      -1.07497676      -1.34382584       0.01833188       0.00710206      -0.01586111      -0.05057332
C        3.49522558      -1.51168475      -0.17789014       0.00736280       0.01055408      -0.00522660      -0.06752373
C        3.58868803      -0.62048915       1.06633777       0.01587613       0.01232031       0.01740676      -0.01254468
N        3.33852493       0.76497273       0.75480722       0.02302040      -0.02296654      -0.02213314       0.02353511
C        4.32383962       1.70823596       0.64902384       0.00531267      -0.01953211       0.01760174      -0.01745247
C        3.74532249       2.86758534       0.24783624       0.01641389      -0.02912582       0.00431252      -0.01854339
N        2.41168584       2.60372982       0.10507846       0.00391528       0.02114038       0.01225616       0.02315269
C        2.14476100       1.29599144       0.42686464       0.01282388       0.02682026       0.00949835       0.00457366
Ir       0.09221826       0.84861725       0.34731193      -0.00215021       0.01071942      -0.00970846      -0.04342770
C       -0.09634678       1.89389361       2.01653778       0.02600396      -0.00078757      -0.01256999       0.06224824
N       -0.19704827       2.51338265       2.97927179      -0.02285708      -0.01263612       0.00220127      -0.27038212
C       -1.90186762       1.19254352      -0.17677976       0.00197142      -0.00131823       0.01272010      -0.00126363
N       -3.04940236       0.52779857      -0.41100690       0.00731755       0.00057454      -0.00167695       0.01324804
C       -3.17450047      -0.90661440      -0.26631037      -0.00224850      -0.01140763       0.01236728      -0.00380887
C       -4.60739822      -1.39625892      -0.08665333      -0.01255316       0.02356173       0.04133463      -0.06286618
C       -5.27285430      -0.85473768       1.17786502      -0.01956064       0.00903331       0.01620259      -0.05585371
C       -6.73554342      -1.27957705       1.25683531       0.02983418       0.01690958       0.00758561      -0.10425566
C       -3.98365799       1.37646020      -0.94032142      -0.00349997       0.00980790      -0.01289165      -0.01768228
C       -3.41100852       2.60176168      -1.04710831       0.00992416       0.01653306      -0.01179175      -0.01848139
N       -2.12946029       2.47821342      -0.59071229       0.02581534      -0.00988152      -0.02693747       0.02103372
C       -1.04706422       3.36813749      -0.64551624       0.03085052       0.00155876      -0.00008496       0.04826057
C       -1.01341806       4.67961740      -1.12175500      -0.00025799      -0.00347564      -0.02720544      -0.05623668
C        0.21409394       5.32960993      -1.18149037      -0.02510725      -0.00325982       0.00379684      -0.03505938
C        1.40638754       4.73272895      -0.79461322      -0.03682357      -0.00414802       0.01298040      -0.05560848
C        1.35835202       3.42661005      -0.30475841      -0.02378374      -0.01863570      -0.02989822       0.04825888
C        0.13939330       2.76763615      -0.25426293       0.00565803      -0.04586206       0.01219746      -0.05073172
C        0.25515557      -0.90443549       1.52931714      -0.00181828      -0.00226350      -0.02946557      -0.03226496
C        0.43494396      -1.02442313       2.88909652       0.01262476       0.00649900      -0.02689160      -0.04022434
C        0.62827197      -2.27066083       3.48638820      -0.03250251       0.00436489       0.01207192      -0.04839569
C        0.65779394      -3.40711853       2.69283261      -0.03367290      -0.01073856       0.00906185      -0.04052852
C        0.47684243      -3.31230310       1.33318979      -0.03305508      -0.03675419      -0.00425674      -0.05109903
C        0.25845642      -2.06818637       0.70791932       0.00963710      -0.00382096       0.00972464      -0.01273508
C        0.09640339      -1.91363593      -0.70678749      -0.01613140       0.01523975       0.03206736       0.04369881
C       -0.13018103      -2.95478425      -1.62012776       0.01510943       0.03386085       0.01537400      -0.04709461
C       -0.23666488      -2.69923682      -2.96122256      -0.02012056      -0.02006597       0.01935752      -0.04154489
C       -0.11542130      -1.36160366      -3.41002321       0.02068513      -0.00661470      -0.01307602      -0.06974592
C        0.06747985      -0.37623038      -2.47783629      -0.02690440      -0.01891016      -0.01116709       0.04528036
N        0.16031298      -0.60123495      -1.16505177       0.01571158      -0.01744528       0.00127396      -0.15583866
H        6.24880935      -0.76067771      -0.27581595      -0.02025408       0.00861383       0.00248580       0.03109077
H        6.05718070      -2.38109302      -0.94140849      -0.03035133       0.00396907       0.00717224       0.03630221
H        6.42962043      -1.02782497      -2.00704086       0.00838486       0.00234252       0.02460232       0.03422404
H        4.06233841      -1.62387540      -2.23342399       0.01086719      -0.00335658       0.01423117       0.03420765
H        4.20886808      -0.01442007      -1.54431749       0.04180626      -0.00327041      -0.01862660       0.02884141
H        2.46128366      -1.50274112      -0.51530680      -0.00901119      -0.01420205      -0.00457004       0.06070725
H        3.73923748      -2.53309454       0.11737327       0.00911486       0.00505783      -0.00086294       0.04503863
H        4.58027481      -0.69152992       1.51864203      -0.00297743       0.01219984      -0.00782310       0.05451273
H        2.84102804      -0.95502808       1.78994468       0.01281461      -0.00223719       0.01233375       0.07608727
H        5.34687537       1.48465900       0.87447709      -0.00772447       0.03698444      -0.01727238       0.04909001
H        4.17502033       3.83129282       0.07076724      -0.01255956      -0.00112132      -0.02123307       0.05149984
H       -2.56096133      -1.20569463       0.58829721       0.00579132       0.01865440       0.02954301       0.07758454
H       -2.75136841      -1.37896774      -1.16210388       0.01925137      -0.00540628      -0.00131527       0.05287783
H       -4.57482810      -2.48722272      -0.03972762      -0.01192778       0.03205460      -0.00119499       0.04643563
H       -5.20546553      -1.12907681      -0.96204196       0.01505523      -0.01413894       0.02089403       0.03992035
H       -4.73813683      -1.22298291       2.05666413       0.00413915       0.00979070      -0.04885366       0.04033285
H       -5.20986984       0.23628657       1.19038581      -0.01904146      -0.03282159       0.01030972       0.03601767
H       -6.81834880      -2.36366544       1.26438982       0.00644543      -0.01332349       0.01331998       0.03704463
H       -7.29703894      -0.90353744       0.40397565       0.01905546       0.01484284      -0.01843479       0.03269101
H       -7.19568585      -0.89194300       2.16120186      -0.00247574      -0.00516505       0.02979634       0.03995486
H       -4.97402561       1.07217495      -1.20028467      -0.02875493      -0.02526645      -0.02132261       0.05110695
H       -3.81733428       3.52019908      -1.41426263       0.00221371       0.03546616      -0.00393953       0.04814238
H       -1.90757004       5.18425352      -1.45364783      -0.01751840      -0.00878108       0.01040230       0.02838343
H        0.24280766       6.34040547      -1.56014970      -0.00736295       0.01610915       0.01566851       0.03377189
H        2.33607540       5.27260737      -0.87901977       0.02054172       0.00293421       0.01407829       0.02966928
H        0.44084160      -0.14442138       3.51733500      -0.02237167      -0.00176272      -0.00133496       0.04722818
H        0.76143243      -2.33975993       4.55490385       0.01203028      -0.00364287       0.01531790       0.01928851
H        0.82715813      -4.37258249       3.14923985       0.00700157      -0.01553632      -0.02438860       0.01743114
H        0.52483379      -4.20497405       0.72686472      -0.02137574      -0.00861517      -0.01219741       0.01707669
H       -0.23525243      -3.96272683      -1.24799948       0.02215536       0.00922270      -0.01200611       0.02084011
H       -0.41707151      -3.49591310      -3.66566872       0.00005166       0.00007585      -0.03194196       0.01234131
H       -0.16726460      -1.12325467      -4.45989199      -0.00844766       0.00892912      -0.00377446       0.00993632
H        0.14543014       0.66100481      -2.78801368       0.00039810       0.00509887       0.00621243       0.01125650
