70
Properties=species:S:1:pos:R:3:forces:R:3:charge:R:1 energy=-2959.861385879748 free_energy=-2959.861385879748 dipole="-1.47366136387097 1.2251935838305092 0.6207934705234809" pbc="F F F"
C       -4.04579929      -1.72051034       2.14403426       0.02415229      -0.03071492       0.01035715      -0.10626079
C       -5.05055158      -1.32881433       1.06918659       0.00637744      -0.00053889      -0.00263742      -0.05517149
C       -4.42605633      -0.50195885      -0.05311019       0.00520885      -0.00107813      -0.02785905      -0.06321835
C       -3.51819457      -1.32659689      -0.97254394       0.01613398       0.02234900      -0.02054597      -0.01808974
N       -3.01123320      -0.50218807      -2.03995052      -0.00408053       0.01250292      -0.00109758       0.02255550
C       -3.70087729      -0.22972974      -3.19271455      -0.00305850       0.01620741       0.01574540      -0.02026890
C       -2.98162881       0.68429514      -3.89040316      -0.01548814       0.00934193       0.02054832      -0.01576143
N       -1.87647181       0.96021579      -3.13907762      -0.01387744      -0.00005641      -0.00418376       0.03246427
C       -1.87268061       0.21675506      -1.99130546      -0.00937542      -0.02412452      -0.02729356       0.01271118
Ir      -0.15996133       0.42479071      -0.83256491       0.01390926       0.01868042      -0.02723052      -0.00507361
O        1.30592565      -0.74449986      -2.46472689       0.00470579      -0.00956087       0.01685126      -0.38350396
C        2.40250437      -0.99328400      -2.01198438       0.00861327      -0.01754773      -0.00997950       0.27269447
N        3.46432808      -1.23213669      -1.59319712      -0.03830758       0.01414721       0.00299018      -0.47465142
C        1.72099755       1.26109633      -0.35293450       0.01388636       0.00898231       0.00229792      -0.00762497
N        2.74491517       1.12553950       0.50467964       0.01140443       0.01623968      -0.00604389       0.02619798
C        2.71893414       0.17024650       1.59155535       0.02191620      -0.00128494       0.00890907      -0.00362252
C        3.98720254       0.10644167       2.43676269       0.03093451      -0.02061868      -0.00217074      -0.05875646
C        5.19088277      -0.55755875       1.75997801       0.01923538       0.00072554      -0.00804122      -0.05283781
C        4.90532583      -1.97287445       1.27153153      -0.00094441       0.00338605      -0.00547778      -0.11497204
C        3.77386152       1.95448246       0.15009686      -0.00992630      -0.00815179      -0.01226795      -0.00915398
C        3.39191123       2.62216470      -0.96631096      -0.01147355       0.00201015      -0.00712149      -0.01545709
N        2.13127663       2.19073308      -1.26194744       0.00427711      -0.00262403      -0.00016463       0.02766560
C        1.28897848       2.48543625      -2.34274565      -0.00030395      -0.00244811       0.00507710       0.06211987
C        1.54320800       3.33407502      -3.40898113       0.00939287      -0.01664877      -0.00620178      -0.04757346
C        0.58965311       3.44550995      -4.41400414      -0.01032469       0.01295327       0.00166215      -0.03532655
C       -0.58388644       2.70328182      -4.40610357      -0.01072920      -0.00569011       0.01227859      -0.04821752
C       -0.80766315       1.84638065      -3.33923203       0.00028099      -0.01599972       0.01224817       0.05556143
C        0.08915733       1.78425620      -2.27849997      -0.00124135      -0.00629102       0.02426530      -0.05717397
C       -0.31151314      -1.53138204      -0.08654048      -0.00996565      -0.01532265       0.01885665      -0.04940297
C       -0.19882625      -2.81285982      -0.68463109       0.02459146      -0.00813991       0.02602400      -0.03581517
C       -0.26217664      -3.84200497       0.20228437       0.01800032       0.00274130       0.01384999      -0.01034601
S       -0.47937256      -3.32145067       1.82549428       0.01990225       0.00652867      -0.00660787      -0.09672774
C       -0.49001621      -1.64739728       1.27788676       0.01019611      -0.01851925       0.01727197      -0.00054790
C       -0.70473434      -0.54079048       2.14964737      -0.00627324       0.00380312      -0.00795827       0.09035240
C       -0.84483721      -0.64654513       3.54206267      -0.00898236      -0.00496636      -0.01322569      -0.04581678
C       -1.07268866       0.48991170       4.28285311       0.02261058      -0.00053217      -0.00947419      -0.01399374
C       -1.15870734       1.71786073       3.62954460       0.00454679      -0.00193159      -0.00303782      -0.05048649
C       -1.00044122       1.74273576       2.25672805       0.00872215      -0.00788815      -0.00587031       0.05117348
N       -0.77737723       0.65708818       1.53141220      -0.03313002      -0.01131137      -0.03187184      -0.14716984
H       -3.53245765      -0.84279666       2.53071207      -0.04285571       0.00705802      -0.00251089       0.03315317
H       -4.55150611      -2.21446585       2.96981234      -0.00298806      -0.00068972       0.00956925       0.03858992
H       -3.29802128      -2.40313237       1.75269087       0.01322331      -0.01613542      -0.01751001       0.04248747
H       -5.50503316      -2.22944721       0.65133601      -0.00989578      -0.00110827      -0.01541152       0.03547943
H       -5.84863181      -0.74174240       1.52834736       0.00333955       0.01959254       0.00295234       0.03740265
H       -3.83494357       0.30810814       0.37973550       0.00037644       0.00175299      -0.01904658       0.04879005
H       -5.21953792      -0.05620986      -0.65841947      -0.02119353       0.00843264       0.00486153       0.03613142
H       -4.07358345      -2.16508394      -1.40416898       0.02497413       0.02884341       0.02750956       0.05588741
H       -2.66053615      -1.70027912      -0.41267649      -0.03150557      -0.03516977      -0.01083274       0.08527189
H       -4.63397529      -0.70320772      -3.42592540       0.04241482       0.01204959       0.00346206       0.05281276
H       -3.17017286       1.13508220      -4.84351781      -0.00539111       0.00398923       0.03512251       0.05587339
H        2.51961770      -0.81277999       1.15756881      -0.00834291      -0.01023389      -0.01839688       0.08650647
H        1.87456904       0.42910337       2.24014600      -0.00907617       0.01073230       0.01195633       0.04305334
H        3.73687744      -0.47613987       3.32709973      -0.00815494       0.00260026       0.00149747       0.04128379
H        4.25875710       1.11073589       2.77600806      -0.01875504      -0.01571753      -0.00542329       0.03074597
H        5.52945395       0.03168821       0.90804542      -0.01623972      -0.00902789      -0.01748434       0.04054157
H        6.00651930      -0.57840463       2.48906388      -0.01067278       0.00372878       0.01054848       0.02573185
H        4.28793939      -1.94926394       0.37657331      -0.00716160       0.00367967      -0.03421862       0.07799616
H        4.40935866      -2.56171126       2.04070753      -0.00588176       0.00681706       0.01486229       0.02497194
H        5.83959830      -2.46459875       1.01199685      -0.00516741      -0.00744097       0.00477351       0.03583288
H        4.68833209       2.02316135       0.69854513      -0.00500407       0.00954824      -0.00771445       0.05707282
H        3.92018494       3.34048771      -1.55894489      -0.01420287      -0.00011758       0.02458748       0.04891591
H        2.46881496       3.88466220      -3.48487608      -0.00665914       0.01895872       0.02668244       0.03398374
H        0.77538914       4.11726313      -5.23769924       0.02433285      -0.00198715      -0.02911543       0.03620698
H       -1.28697025       2.79561667      -5.22040708       0.00551740      -0.03120333      -0.00589815       0.03242403
H       -0.06736219      -2.96559128      -1.74196932       0.02025547       0.01763737       0.02334744       0.05243917
H       -0.18403875      -4.89512136       0.00571066      -0.00764454       0.02389238       0.00539706       0.03759406
H       -0.77876642      -1.61939057       4.00316423       0.00536968      -0.00731904       0.00179736       0.04910765
H       -1.18117866       0.43534726       5.35601355      -0.01287233      -0.01049309      -0.00069804       0.03748247
H       -1.34648593       2.62571120       4.17897634       0.00445727       0.02660888      -0.00855603       0.03511247
H       -1.05557773       2.67168459       1.70412250      -0.00611197       0.02211266       0.02101945       0.04064367
