76
Properties=species:S:1:pos:R:3:forces:R:3:charge:R:1 energy=-3221.4940422495742 free_energy=-3221.4940422495742 dipole="-0.5799344340696677 -0.37169907785576606 0.8158054114472209" pbc="F F F"
C        4.73612618      -0.86005976       2.56134106      -0.01233945       0.00428678      -0.02775422      -0.10618649
C        4.92064434      -0.83909645       1.04859671      -0.01502051       0.01648641      -0.02564693      -0.05368390
C        3.93066862       0.12745280       0.39936829      -0.01334630       0.00253745       0.00869863      -0.07215923
C        3.80356072      -0.03746066      -1.11890340      -0.01142554      -0.00197612       0.02639150      -0.00925103
N        3.27920787      -1.34284083      -1.43213376       0.00991680       0.00896910      -0.01295926       0.03199337
C        4.04151463      -2.41141007      -1.81994478       0.01259081       0.00378136      -0.00273330      -0.01303798
C        3.22777976      -3.49313139      -1.87724352      -0.03264243      -0.01702471      -0.00287905      -0.00680632
N        1.98843027      -3.05946150      -1.51528724      -0.03224579      -0.01721079       0.00285049       0.04116833
C        2.00648014      -1.72314758      -1.24864797      -0.00061976      -0.01494029       0.01124191       0.01380767
Ir       0.08207625      -0.95031602      -0.87342945      -0.02514717      -0.00335533       0.03212215       0.05570343
O       -0.10906522      -0.94098363      -3.04992144      -0.01198290       0.01155559      -0.00336936      -0.36770987
C        0.50773580      -1.68857602      -3.78819463       0.00506840      -0.01360287       0.00301192       0.26983810
N        1.12469221      -2.38483803      -4.48330118      -0.02990108       0.01041202      -0.00978655      -0.45183737
C       -1.95828415      -1.10147538      -0.35353325       0.01966502      -0.01983452      -0.03729929       0.00554670
N       -2.98398340      -0.36604473       0.11302189       0.02374339      -0.02834888      -0.02285109       0.02515317
C       -2.84737693       1.04370021       0.42584597       0.02068632      -0.02505532      -0.01920789      -0.01151242
C       -4.06875548       1.69570584       1.06216695      -0.00642183      -0.00419709      -0.02192664      -0.06591168
C       -5.14895758       2.07855448       0.05069878      -0.03087946       0.00687045       0.00080650      -0.05531910
C       -6.33458053       2.74615274       0.73663824      -0.02227257      -0.00462913       0.02316779      -0.10552944
C       -4.08551597      -1.15850867       0.28458248      -0.00713338       0.00910328       0.00382295      -0.01622511
C       -3.74137715      -2.42160392      -0.07481987      -0.00809865       0.00742225      -0.01425174      -0.01642753
N       -2.43431076      -2.37419824      -0.45600951      -0.00082146       0.00201594      -0.00670018       0.03353685
C       -1.54198330      -3.39042264      -0.84646973      -0.00275544       0.01944173      -0.00773359       0.05362729
C       -1.82687009      -4.71992063      -1.11887187       0.00591012       0.01628502       0.01123814      -0.04490229
C       -0.78603345      -5.54833040      -1.51925904       0.00096662       0.00565319      -0.00281965      -0.03274254
C        0.51310917      -5.08213952      -1.67128709       0.00772475      -0.00073160       0.00930776      -0.03997942
C        0.77274465      -3.74770706      -1.39631307      -0.01833531      -0.02650095      -0.01920151       0.06158789
C       -0.24414786      -2.90949476      -0.96028587       0.00153736       0.00314091       0.00570288      -0.06215511
C        0.46998710      -0.66717759       1.07822001       0.00380836      -0.00133045      -0.01611178      -0.05827207
C        0.64630386      -1.51693757       2.17355524       0.00677800       0.00787732      -0.00852903      -0.04930517
C        0.84410148      -0.85921819       3.35671160       0.00118235      -0.01224580       0.00342157      -0.03157764
S        0.82385582       0.86457081       3.16093966       0.03670831      -0.00674211       0.01181314      -0.10149411
C        0.56686500       0.70640300       1.43838322      -0.00567988      -0.01457661       0.00818333       0.01401680
C        0.45445491       1.70812974       0.46060601      -0.01391198      -0.00706678       0.01728522       0.03174056
C        0.45001915       3.13205284       0.65225895      -0.00264628      -0.01148496      -0.01069847      -0.00102580
C        0.66654675       3.74884266       1.88775087       0.01068816      -0.01133973      -0.00372660      -0.05239786
C        0.60198051       5.12644449       2.02375891       0.00997667      -0.00784311      -0.01206031      -0.03365380
C        0.33036060       5.93142877       0.93021185       0.00812978      -0.00557671      -0.01049491      -0.03587662
C        0.13372971       5.35247382      -0.31204332      -0.00304275      -0.00045390       0.01457546      -0.04768069
C        0.18761807       3.96484968      -0.47165248      -0.00011910      -0.00364479      -0.00201659       0.01549434
C       -0.01800580       3.34375609      -1.73318696      -0.01009323      -0.00272200       0.00274269      -0.07425071
C        0.03933134       1.97504831      -1.83563632      -0.00396201       0.01196594       0.00360883       0.04249868
N        0.26482046       1.16200455      -0.80890670       0.02660873       0.03434794      -0.00580590      -0.13927639
H        3.71376132      -1.14180501       2.80443317       0.01119338      -0.01272303       0.02230888       0.04176309
H        4.92783903       0.12202447       2.98622055       0.01139282       0.00198926      -0.00118813       0.03998488
H        5.41207480      -1.57785131       3.01919793       0.01211827       0.01974967       0.01665019       0.03651728
H        5.94404621      -0.54391903       0.80450249      -0.00412725      -0.02246555      -0.01343281       0.03139214
H        4.76048458      -1.84947263       0.66409496      -0.01142339       0.01874956      -0.00174256       0.02900376
H        2.94280294      -0.04284300       0.82838234      -0.01846401       0.02685487       0.01379710       0.06629036
H        4.22284496       1.15434506       0.62008240      -0.01634167       0.01601792      -0.00947793       0.05054132
H        3.11324499       0.71636017      -1.50592641       0.00958112       0.01037775       0.00726856       0.07162516
H        4.77354884       0.07578719      -1.60892320      -0.01226898      -0.00839425      -0.00012871       0.05757422
H        5.08587017      -2.32436225      -2.03546077       0.02660275       0.03136126       0.00336623       0.05948873
H        3.43794665      -4.50660332      -2.14779180      -0.00874884       0.01030804      -0.00921281       0.06466264
H       -1.99403737       1.13642221       1.10365006       0.01731865      -0.00510626       0.01299616       0.07478680
H       -2.59331785       1.57537669      -0.49603954       0.03181893       0.00904643      -0.01420514       0.06913458
H       -3.71896628       2.60426991       1.55565643      -0.03188943       0.01569258       0.01077572       0.05292696
H       -4.48516015       1.04795660       1.83609454       0.02212604       0.00177322       0.00500232       0.04646259
H       -4.72243964       2.77205103      -0.67623190       0.01890922      -0.00571311      -0.02124376       0.03743586
H       -5.48964867       1.19779915      -0.49689929      -0.00546731      -0.01154260       0.00039055       0.03302919
H       -6.00802176       3.64676431       1.25228650      -0.03166961      -0.00994879      -0.00009114       0.03942637
H       -6.78621990       2.07798705       1.46759879       0.01833092      -0.00060697       0.00341954       0.03450289
H       -7.09909217       3.02038136       0.01349297       0.03717862       0.00232851      -0.01309983       0.03996037
H       -5.02378289      -0.79754144       0.64641748      -0.01423871       0.02902966       0.00212961       0.06273945
H       -4.32838256      -3.31660424      -0.08261998       0.02677043      -0.00878899       0.00343990       0.05759029
H       -2.82960766      -5.11174738      -1.04334194      -0.01525726       0.00234531       0.01373178       0.03728857
H       -0.99829304      -6.58438802      -1.73546806       0.00143331       0.00724250      -0.00523539       0.04346562
H        1.28791144      -5.75025464      -2.01353252       0.00732648       0.01095839      -0.00381369       0.04428573
H        0.62708234      -2.59136245       2.10052773      -0.01384043      -0.00399058       0.02671927       0.02668875
H        0.98931741      -1.26746261       4.33604470       0.00361018      -0.00003889       0.01987354       0.03108130
H        0.89852883       3.15445740       2.75402854      -0.01086113       0.00262395       0.01505325       0.04407521
H        0.76993178       5.56706139       2.99519478      -0.00188653       0.02178985       0.00161968       0.02376088
H        0.27763195       7.00461684       1.04314423       0.00453351      -0.00718851      -0.00895081       0.02142827
H       -0.06643674       5.97298573      -1.17451750      -0.00696936      -0.03280196      -0.00021364       0.02174272
H       -0.21457609       3.94943744      -2.60460429       0.02359847      -0.01669499       0.02371339       0.02166408
H       -0.11238318       1.49706374      -2.79563025       0.02876517      -0.01195237       0.00635169       0.04815443
