79
Properties=species:S:1:pos:R:3:forces:R:3:charge:R:1 energy=-3426.8143710695767 free_energy=-3426.8143710695767 dipole="1.3372544679477103 -0.04373962742948927 1.1957761235701172" pbc="F F F"
C       -4.94535654       1.79681558       0.55219148      -0.01770774       0.00802655      -0.01368011      -0.10547444
C       -5.27130874       0.46306471       1.21266087       0.00160154       0.01437751      -0.00154434      -0.05368272
C       -4.04152116      -0.42782647       1.37701435      -0.00438680       0.01806666       0.02768462      -0.05707167
C       -3.37931578      -0.73256319       0.03107088      -0.00154704       0.00085846       0.02211876      -0.00549668
N       -2.53068238      -1.89106312       0.10432623       0.00641981      -0.01724395      -0.00399436       0.03069298
C       -3.02725706      -3.16451340       0.18636089      -0.00898790      -0.01773726       0.01930999      -0.00765238
C       -1.97784960      -4.01475755       0.12096963       0.01757044      -0.00720992       0.01039003      -0.01134985
N       -0.86126925      -3.23682830      -0.00063227       0.00190872      -0.00922864      -0.02073386       0.02439071
C       -1.19785778      -1.91412714      -0.01203272       0.01169167      -0.01675781       0.00406710       0.00041586
Ir       0.42436490      -0.64670300      -0.55287225      -0.00300595      -0.01207459       0.02708756       0.00599132
O       -0.29709559      -1.49985673      -2.74307351      -0.00013106      -0.02483176       0.00929940      -0.38447376
C       -1.47975335      -1.75273870      -2.83143025      -0.03787990      -0.00247723      -0.00165650       0.27217818
N       -2.61339619      -2.01082018      -2.91473715       0.03730083      -0.01093801      -0.01541012      -0.47108036
C        2.41493992      -0.31033700      -1.09802379      -0.00399589      -0.01065730       0.00961468       0.02126423
N        3.27612939       0.70622890      -1.30134684      -0.00364357       0.01333419       0.04271000       0.03109588
C        3.04630214       2.07423380      -0.91886712      -0.00698388       0.02623380       0.02153206      -0.01198212
C        2.82411754       2.20595099       0.59284853      -0.00635391       0.00963746       0.00157616      -0.07170720
C        4.01510198       1.82472678       1.48022776      -0.01377562       0.01426139      -0.01311438      -0.05478490
C        4.15999094       0.32723476       1.74285916      -0.01197633       0.02263355      -0.01808794      -0.10488139
C        4.48047903       0.23157893      -1.74355219      -0.00204615       0.01637578       0.00666067      -0.01807085
C        4.38801457      -1.11913026      -1.80695572       0.00452466      -0.01650312      -0.00895205      -0.01678627
N        3.12743293      -1.43595505      -1.39624276       0.00122531      -0.01515722       0.03152336       0.03568581
C        2.51668329      -2.66835492      -1.13023401      -0.02335419      -0.01500608       0.02423376       0.05567104
C        3.02016498      -3.93739606      -1.36764728      -0.00365640      -0.01555258       0.02708711      -0.04755559
C        2.22198457      -5.02678347      -1.04789015       0.00919220      -0.01960262      -0.01683400      -0.03381285
C        0.93549086      -4.87428949      -0.54795124       0.00672793       0.00961979      -0.00862777      -0.04695873
C        0.45035105      -3.59258646      -0.33839177      -0.01169772       0.01027523      -0.03417283       0.06344631
C        1.25940552      -2.48367479      -0.56515012      -0.03441590       0.01928694       0.00194028      -0.05796995
C       -0.19205954       1.24223168      -1.23511258      -0.02365503      -0.03020886       0.00309921      -0.06504072
C       -0.77321999       2.09095615      -0.31716567      -0.01374127      -0.03033246       0.01063806       0.00674656
S       -1.48450794       3.55856605      -1.00049467      -0.01971091       0.01242818       0.00717309      -0.11615687
C       -0.96417610       3.05052389      -2.58033540       0.02115220       0.00413404      -0.00311797       0.03921712
C       -1.16679823       3.73446402      -3.76853910       0.00713607       0.00429846      -0.00707664      -0.04098395
C       -0.66338151       3.19375593      -4.93445931      -0.01083578      -0.02425184       0.00124694      -0.02917614
C        0.03797673       1.98800709      -4.91508589      -0.00012931      -0.01236123      -0.02361558      -0.03460264
C        0.23387719       1.30217976      -3.73885432       0.00005432       0.00375645      -0.01913061      -0.02738532
C       -0.27629475       1.81576688      -2.54285925       0.00963299      -0.01451130      -0.01133557       0.00761537
C       -0.79235371       1.80893644       1.06454330      -0.01471348       0.02286239       0.02305579       0.11989787
S       -1.46239139       2.88826943       2.28001457      -0.01536196      -0.00508463      -0.01530780      -0.07318501
C       -0.96691433       1.74488775       3.49663353       0.02249329      -0.01890637       0.01499250       0.02075019
C       -1.10680321       1.83561097       4.86908476      -0.01331697       0.00789886       0.01113288      -0.03908953
C       -0.61742105       0.80382226       5.64713535      -0.00735479      -0.00998392      -0.01299837      -0.03539735
C       -0.00086105      -0.29886365       5.05970900      -0.01708616      -0.01768970      -0.00429378      -0.03365641
C        0.14221029      -0.39613463       3.69137360      -0.00131046      -0.01400986       0.00441156      -0.04438732
C       -0.34219222       0.63354438       2.88769163       0.02938295      -0.00598219      -0.01088758       0.07390826
N       -0.26594122       0.70769184       1.53178869       0.00002241       0.01558219      -0.01809253      -0.20147776
H       -4.14112543       2.30717096       1.07787154      -0.01901927      -0.00979529       0.00792158       0.03953570
H       -4.64532780       1.64789165      -0.48139692       0.03153292       0.02993347      -0.00079312       0.04046588
H       -5.82135825       2.44038696       0.55768506       0.00131403       0.02456937       0.01004537       0.03814256
H       -5.71195829       0.63946217       2.19698763       0.02409871       0.00757454      -0.00755427       0.03472840
H       -6.01382175      -0.06249012       0.60679537       0.00315090       0.00624616       0.02252819       0.03535672
H       -3.32032635       0.05285545       2.04131776       0.02130435       0.01456757       0.00541752       0.03433038
H       -4.34366939      -1.36612841       1.85020886      -0.00407338       0.00192429      -0.01696890       0.03428809
H       -4.14365948      -0.93082179      -0.72595006       0.01674742      -0.00277699      -0.02630356       0.07694766
H       -2.77155809       0.10784778      -0.30701964       0.01953410      -0.00546714      -0.00065902       0.07063326
H       -4.07417316      -3.36950655       0.26054820      -0.03242665       0.02435663       0.00067497       0.05760544
H       -1.95107083      -5.08420979       0.13468595       0.01517954      -0.00103953       0.00264242       0.05240937
H        3.91055816       2.66504912      -1.23246656      -0.00457665       0.00056011       0.00236856       0.05720815
H        2.15771595       2.44389763      -1.43863381       0.00558074      -0.00198372       0.00975657       0.06835461
H        1.96858100       1.58356860       0.85805841       0.00826871       0.01022900       0.02633714       0.07231617
H        2.56049019       3.24742350       0.78767593      -0.00380077      -0.00562683      -0.01492842       0.04557327
H        4.94239998       2.21390340       1.05175627      -0.02161663       0.00843596      -0.00827424       0.03287263
H        3.86972457       2.31578690       2.44541573       0.02626033       0.01090511      -0.01557918       0.03785122
H        3.20912079      -0.09200514       2.06379761      -0.00886705       0.00491803      -0.00058112       0.04326929
H        4.49401358      -0.21480540       0.86352668      -0.00024728       0.02345827      -0.02038724       0.03009052
H        4.89427672       0.15989350       2.52916743      -0.03112186       0.01277285      -0.00489821       0.03541126
H        5.30106037       0.87980039      -1.97184669       0.01460544       0.00763272      -0.00423449       0.05518171
H        5.11267189      -1.84810361      -2.10094192       0.01309813      -0.03973396      -0.01248541       0.05848213
H        3.99572539      -4.08471207      -1.80481844       0.00527040      -0.01543860      -0.00689504       0.03533267
H        2.59453197      -6.02240148      -1.22975939       0.02841299      -0.03241077       0.00294775       0.03904507
H        0.32275285      -5.74341934      -0.36159490       0.00978672       0.00316297      -0.00024920       0.03665400
H       -1.71025289       4.66658676      -3.77389284      -0.00749795       0.01726015       0.00090044       0.03528980
H       -0.82259873       3.70345233      -5.87384154       0.01476529       0.01404501       0.02971094       0.03290814
H        0.42219259       1.58280372      -5.83936096      -0.00290308       0.01455726      -0.01486706       0.03273258
H        0.74862474       0.35458039      -3.71643927       0.01211106       0.02845127      -0.01579262       0.06785870
H       -1.58415092       2.69506311       5.31209848      -0.01068046       0.00907058       0.01599041       0.04119359
H       -0.71544973       0.85598287       6.72152676       0.00888625      -0.01288012      -0.03295632       0.03785776
H        0.36756597      -1.09305908       5.69105687       0.02189469      -0.00975880       0.00021139       0.03673837
H        0.62145622      -1.24548985       3.22921553      -0.01024695       0.00263301      -0.01296672       0.04569794
