71
Properties=species:S:1:pos:R:3:forces:R:3:charge:R:1 energy=-2879.9323767016913 free_energy=-2879.9323767016913 dipole="0.4339812836497152 0.7607626504313005 -1.2896042800304561" pbc="F F F"
C       -5.10401170      -1.15856415       3.47113804       0.00249306      -0.00402445      -0.02336036      -0.10690429
C       -4.91073526      -0.17222649       2.32632112       0.02197419       0.01380277      -0.02008856      -0.05311657
C       -4.05751461      -0.79043034       1.22492456      -0.02708895       0.00077028       0.00655088      -0.06972913
C       -3.82894633       0.16620868       0.05117285       0.00777212      -0.01905508       0.00117704      -0.00971304
N       -3.26722961      -0.55598720      -1.06203540       0.01091448       0.01635648       0.00769578       0.02064210
C       -4.02647777      -1.17040774      -2.02239392      -0.00494844      -0.02673003      -0.00205124      -0.01904125
C       -3.18362540      -1.86958262      -2.81966518      -0.02698422       0.01443675      -0.01718623      -0.01615055
N       -1.92801718      -1.67186231      -2.32294167      -0.01057234       0.02352082      -0.00707897       0.02153729
C       -1.96686645      -0.85023928      -1.22670478       0.00837359      -0.01604571       0.00450346       0.00363018
Ir      -0.07002223      -0.50135691      -0.40303747      -0.04068282      -0.00539603       0.02419275      -0.02743982
Br      -0.41522034      -2.13094719       1.64909148       0.00245603       0.02177620       0.00333576      -0.39487312
C        2.01664917      -0.55362294      -0.37809897       0.01091470      -0.03152826      -0.00051258      -0.00153696
N        3.07832516      -0.00610829       0.23576459       0.00072096      -0.01183660      -0.02444691       0.01575702
C        3.00964437       0.95662876       1.30582621       0.01999276      -0.00979389       0.00831993      -0.00829817
C        3.61749967       0.43324433       2.60856846       0.00331331      -0.00777332      -0.00387095      -0.06101560
C        2.93867413      -0.84433685       3.09599500      -0.01289022       0.00068867      -0.01720350      -0.05764813
C        3.45212430      -1.26059682       4.46764305      -0.00507343       0.01423736      -0.00693186      -0.10451367
C        4.24409591      -0.46945493      -0.31886772       0.01410846       0.00176567       0.00523211      -0.01754368
C        3.90863145      -1.33039896      -1.30939503       0.00885483      -0.00072997       0.00015101      -0.01594584
N        2.54437429      -1.37389650      -1.34002186       0.01198070       0.01545597      -0.01236813       0.01594657
C        1.66672163      -2.01841373      -2.22646072       0.01154693      -0.00863263      -0.00184336       0.05413276
C        1.97035742      -2.84143358      -3.30132168       0.00993038       0.02319191       0.00849250      -0.05138575
C        0.92308198      -3.31115592      -4.08587200       0.00020820      -0.01863573       0.00596453      -0.03785984
C       -0.40439903      -2.98160099      -3.83679869      -0.00824941       0.01438079       0.00821872      -0.05097377
C       -0.68633788      -2.15971292      -2.75492721       0.00267360      -0.00820082      -0.01624425       0.05553366
C        0.34426417      -1.70645664      -1.94425469       0.01609980      -0.01132178       0.01177943      -0.07090081
C       -0.41343714       1.37341110       0.50618641      -0.02389347       0.03280658      -0.02311189      -0.04953605
C       -0.99802635       1.53415751       1.76722687      -0.00195076       0.00694755      -0.00636024      -0.03415294
C       -1.25922828       2.78587882       2.30144561      -0.02616177       0.00619424      -0.00932199      -0.03481685
C       -0.97431187       3.92990370       1.57387698      -0.01525310      -0.01588938      -0.01543106      -0.04049696
C       -0.38615782       3.81074446       0.33208128       0.03169413      -0.00533593      -0.00220725      -0.03857061
C       -0.08414206       2.55384095      -0.19321805       0.02353222      -0.00204897       0.02603777      -0.00917657
C        0.63601714       2.43213871      -1.46032087      -0.02010156       0.00401533       0.02003838       0.09091618
C        1.55917785       3.38722636      -1.88887682       0.00025762      -0.00012403      -0.00855321      -0.04641936
C        2.28813714       3.16370069      -3.04098861       0.01137099      -0.00616290       0.00063119      -0.01942409
C        2.06560890       1.99290632      -3.75499489      -0.01492113      -0.00449873      -0.01886778      -0.04552162
C        1.10768514       1.11440691      -3.28317288      -0.00143792       0.01224715      -0.00037501       0.05046719
N        0.42704579       1.30828544      -2.16096849      -0.00960762       0.00278369      -0.01210794      -0.16157078
H       -5.70734821      -0.72038137       4.26222717       0.01381863       0.00218872       0.00970626       0.03473718
H       -5.60127983      -2.05841956       3.11560640      -0.01524877       0.00532805       0.01059088       0.03585541
H       -4.13922843      -1.44730798       3.88047976      -0.01209609       0.01303776       0.02390255       0.04913700
H       -4.42175029       0.73018685       2.69864254      -0.00891848       0.00769180      -0.01194977       0.03467537
H       -5.88304983       0.11626879       1.91571611       0.01621202       0.00595371       0.04102051       0.02477109
H       -4.55058743      -1.69202525       0.85188372      -0.01143321      -0.00550800       0.01626162       0.03854956
H       -3.09254880      -1.08526425       1.63675555      -0.00877587      -0.03282166      -0.02957241       0.07866732
H       -3.13954683       0.96199607       0.34011109       0.01751694       0.00150783      -0.00379941       0.07264964
H       -4.77817178       0.61098179      -0.26504213       0.03376990      -0.01655445      -0.01131992       0.04555468
H       -5.09127865      -1.06114268      -2.06290763       0.01018100      -0.01046872      -0.00585619       0.04581343
H       -3.38099625      -2.46965113      -3.68279614      -0.01571007      -0.02925167      -0.01618454       0.04563603
H        3.53472569       1.86535416       0.99119566      -0.00528680       0.02169920      -0.00670085       0.04123103
H        1.95430116       1.19695062       1.45660707      -0.01621472      -0.01959485      -0.00544452       0.08046310
H        4.68722808       0.25111903       2.46995494      -0.02188608      -0.00380261       0.01983000       0.03391363
H        3.50810390       1.21428401       3.36417020       0.00861393      -0.01160345      -0.01857777       0.04365154
H        3.11802746      -1.65076940       2.38307113       0.01300587      -0.01226295      -0.00584936       0.03653464
H        1.86049945      -0.69086587       3.14525071      -0.00324237       0.01834754       0.00159563       0.06088170
H        3.19833240      -0.50833386       5.21212685       0.02913847      -0.01036057      -0.00809761       0.03348883
H        2.99784265      -2.20166356       4.76390836       0.00817172      -0.00653454       0.01340985       0.04510169
H        4.53472743      -1.38301851       4.45525338      -0.03573696      -0.01211367       0.00535933       0.02853032
H        5.20852855      -0.15320282       0.02060409       0.00415234       0.00736715       0.01723509       0.04505367
H        4.52362998      -1.90161157      -1.97442521       0.00773708       0.02038899       0.01284063       0.04485852
H        2.98736994      -3.11520542      -3.54202854      -0.00174074       0.01178135       0.01237934       0.02472614
H        1.14911308      -3.95081566      -4.92613007       0.00728488      -0.00119881       0.00255946       0.02960521
H       -1.18090307      -3.36480246      -4.48245547      -0.01558392       0.02055559       0.00786607       0.02604803
H       -1.25530037       0.66399948       2.35686854       0.00862795       0.02999279       0.00619729       0.05313239
H       -1.70303823       2.87132177       3.28391292       0.00064180      -0.03322685      -0.00189912       0.02355135
H       -1.21242149       4.90587761       1.97156365       0.00818478       0.00210327       0.01128986       0.01962446
H       -0.17280697       4.69655431      -0.24926053      -0.01553775       0.02709601       0.00687539       0.01798399
H        1.71438245       4.28355668      -1.31046292       0.02368124       0.01543276       0.01989328       0.03725922
H        3.01707022       3.88788815      -3.37558143       0.00800657      -0.02151872      -0.01351309       0.03105289
H        2.61442830       1.77418862      -4.65868733      -0.03899868       0.01770268       0.00580890       0.03046725
H        0.86853740       0.21006403      -3.82805735       0.02629951      -0.01296764       0.00134464       0.03250654
