125
Properties=species:S:1:pos:R:3:forces:R:3:charge:R:1 energy=-6722.889395367428 free_energy=-6722.889395367428 dipole="2.305849764238042 3.039362170835285 -0.08138298664176577" pbc="F F F"
Ir       5.16332083       9.06118288      24.50417705       0.01272299      -0.00095064      -0.04125184      -0.03842288
N        4.62622864      12.42615677      24.35394430       0.00514525      -0.01246217      -0.02373621      -0.03710545
N        6.37741637      10.86419371      24.40458103      -0.01126823      -0.00498232       0.00867357      -0.15883018
N        7.04281995       8.27536814      24.20408054      -0.01237081      -0.00299114      -0.00603386      -0.04178816
N        7.53160195       7.06697803      24.14663204      -0.01030017       0.00073313       0.00998676      -0.21235230
N        9.18506392      13.94751210      24.49337807       0.00926812       0.00304871      -0.00204942      -0.07143191
N        4.86967751       9.49703500      21.32879739      -0.03874707       0.01758560       0.01514885      -0.00687755
N        3.10792057       6.66417352      20.24449966      -0.00846172       0.02347097      -0.01727699      -0.22090830
N        3.92991982       7.73962591      22.23756842      -0.00388854       0.02104231       0.01393300       0.01970548
N        4.64661718       7.26820018      26.71859342      -0.00013189      -0.00851582       0.00030480       0.02346278
N        4.36167394       5.78900372      28.58894022      -0.00408429      -0.00216526      -0.00882264      -0.22031651
N        5.84200186       8.83217330      27.66838512      -0.00708808      -0.00297471      -0.00057065      -0.00568362
C        3.53447531      10.21350925      24.94797131       0.01167903      -0.00144377       0.00634215      -0.05501910
C        2.31551053       9.72018286      25.41349660       0.00687667      -0.01198896       0.01266182      -0.03743669
C        1.20962491      10.52749604      25.68144200       0.01548825       0.00498733       0.00798546      -0.03559623
C        1.23550023      11.88927101      25.44623729      -0.01771814       0.00439895      -0.03279010      -0.03646711
C        2.42316884      12.41688361      24.96271966      -0.01906071       0.00169743      -0.00355032      -0.01107572
C        3.56623663      11.60524596      24.78616736       0.00118686       0.01690249       0.02082070       0.04686580
C        2.75661098      13.73501082      24.50042564       0.01788617       0.00060534      -0.00068538      -0.00438857
C        2.01412293      14.89618045      24.36376613       0.01222198       0.00128136       0.01326235      -0.02551730
C        2.61265430      15.98809971      23.75206220       0.00036454      -0.00093528       0.03039516      -0.03482026
C        3.90331115      15.90450375      23.23292947       0.00502913       0.00215734       0.01911066      -0.03324103
C        4.65358038      14.75491360      23.38218153       0.00616494      -0.00974700      -0.00190436      -0.04882662
C        4.10528199      13.68184444      24.07604266       0.01355888      -0.01298016      -0.00288241       0.05079158
C        5.98878615      12.14564285      24.43725248       0.01014352       0.00009203      -0.02279906       0.13577889
C        6.90352834      13.18301972      24.54089529       0.01094999      -0.00948603       0.02226001      -0.10693635
C        8.28307229      12.93262881      24.44046838       0.00285997       0.00596383       0.01335146       0.07477316
C        8.66366603      11.59042903      24.29305358      -0.00859153       0.00682386       0.00127189      -0.09084857
C        7.70337942      10.59532421      24.32691911      -0.01226361       0.00693677       0.01178376       0.08096099
C        8.04098420       9.19672313      24.24590631      -0.01466606       0.00283877      -0.00413657       0.02094759
C        9.25734482       8.51152188      24.20628836      -0.01229721       0.01342675       0.00228020      -0.07934281
C        8.86815306       7.17509102      24.14217920      -0.00753546       0.01062870       0.01145962       0.01593689
C       -0.00584506       9.86749275      26.25963858      -0.00203946       0.02171107       0.00364446       0.48382229
C        1.83412167      17.26534770      23.64014335      -0.02126437      -0.01147798      -0.00095640       0.48528833
C        8.74400040      15.31896488      24.36801473      -0.00115904      -0.02765963       0.00810877      -0.05047772
C       10.58911317      13.68364471      24.28539275      -0.00500866      -0.00036402       0.01044129      -0.05211437
C        9.75655397       5.99063132      24.13008669      -0.00157486       0.00778751      -0.00464261       0.48344077
C        4.64230776       8.87676596      22.51282111       0.01314186       0.01714072       0.01129683       0.01944304
C        4.32613511       8.76869797      20.30275072       0.01521721      -0.00630852      -0.00351699       0.03547693
C        4.27120014       8.89741331      18.92497783       0.00649326      -0.00894809      -0.00510733      -0.02560422
C        3.62977819       7.88147851      18.23074686       0.00606370      -0.01195509      -0.00702983      -0.04469377
C        3.07921486       6.80692314      18.92884910       0.00364825       0.00245704      -0.01439578       0.06099204
C        3.72034765       7.62946433      20.90041316       0.02319512      -0.00143678       0.00251643       0.13489754
C        3.61338381       6.88596260      23.30830782       0.00524088       0.00281973       0.01215473       0.05502860
C        2.88004306       5.70981965      23.28529306      -0.00207830      -0.00030346      -0.00162865      -0.05053636
C        2.69000501       5.00048359      24.47265263       0.01068769      -0.01203865      -0.01104085       0.01715907
C        3.27463633       5.45754121      25.65890885       0.00585775      -0.01463969      -0.01259747      -0.04703880
C        3.99651767       6.63627221      25.64712246      -0.00418846      -0.00861888       0.00118747       0.05552458
C        4.14930712       7.37114892      24.48600297      -0.00012348       0.00640323       0.01560158      -0.05069998
C        5.27738040       8.45962893      26.49566237       0.01123435      -0.01817916      -0.00624908       0.01806842
C        4.81520793       6.87971478      28.00734499      -0.00473955       0.00738073       0.00034006       0.13617333
C        4.68943042       5.64492979      29.86256605       0.00339387       0.00106283      -0.00834075       0.06235388
C        5.45113606       6.55906201      30.58899449       0.00183757       0.00415572      -0.01199273      -0.04422133
C        5.91774348       7.71341825      29.97282569      -0.01575686       0.01885982       0.01066792      -0.02325113
C        5.59400967       7.88837091      28.63617047      -0.00140016       0.00500376       0.00916328       0.03615402
C        5.64902598      10.71719057      21.21768953       0.00215124      -0.03301172      -0.00778083       0.03493369
C        4.85876302      11.84100375      20.55384865      -0.00546731      -0.02755041       0.00809829      -0.11542622
C        6.98022996      10.42661133      20.52788018      -0.00142049      -0.00002384      -0.01539827      -0.11385854
C        2.39759574       5.70503352      18.15675584      -0.00215172       0.00399659       0.00141319       0.48498723
C        1.85008567       3.73204671      24.52673622      -0.00585285       0.00631185       0.00693818       0.02703303
C        1.17737138       3.41928291      23.18697050       0.00883252       0.00498011       0.01594004      -0.11622991
C        2.74484773       2.54624702      24.91392458      -0.00543661       0.00916500      -0.00433850      -0.11289670
C        0.74817160       3.91266294      25.58356818       0.00920322       0.00434098      -0.00209196      -0.11377051
C        4.15315683       4.39549233      30.51833762       0.01461815       0.00108592       0.00979381       0.48564411
C        6.59685868      10.06496821      27.80860310      -0.00864552      -0.00866991       0.00604663       0.03936444
C        8.04770950       9.76664368      28.17490271      -0.00305549      -0.00930745      -0.00285208      -0.11490650
C        5.91725420      11.01399458      28.79188026      -0.00232536      -0.01276483       0.01237693      -0.11711201
F       -0.28846192       8.68445518      25.68812674      -0.00365742       0.03599802      -0.01190412      -0.20917521
F        0.15646948       9.60654047      27.57641994      -0.02900431       0.00445245       0.01448571      -0.21682924
F       -1.11641333      10.61340723      26.16204869      -0.00055332      -0.01003492       0.01080758      -0.20722211
F        1.46768306      17.73607090      24.84860211      -0.00821457       0.00723356      -0.02009308      -0.21082008
F        2.51374699      18.25532797      23.04217141      -0.00094695      -0.01290822       0.01552142      -0.20777942
F        0.69480426      17.11566713      22.93971936      -0.01402495      -0.00928739       0.00791918      -0.20934421
F       10.19484909       5.66943479      25.37260584       0.00706993      -0.01426949      -0.01790437      -0.22388342
F        9.19120075       4.88732004      23.63399665       0.01266098       0.00027968       0.00251504      -0.19957654
F       10.87611559       6.21063005      23.40612947       0.01363913      -0.01625712       0.00747286      -0.22151888
F        3.22395518       5.15198520      17.24837491       0.00012470       0.00595271       0.00896162      -0.20667056
F        1.94794571       4.71915989      18.92708185      -0.00357471       0.00442830      -0.00137767      -0.18212587
F        1.34572559       6.17026902      17.45490445      -0.00393610      -0.00121418       0.00637216      -0.20729029
F        3.87437493       3.43133046      29.64196274       0.00623258       0.01129712       0.00949220      -0.18484161
F        5.01981414       3.88222970      31.40803627       0.01447893       0.00015036       0.00202672      -0.20632093
F        3.02017468       4.63487299      31.20483117       0.00506515       0.03076937       0.00081445      -0.20323989
H        2.19834543       8.65615697      25.56245492      -0.00274548       0.02362769      -0.00080744       0.05858550
H        0.37086911      12.51178172      25.60832599      -0.01726334      -0.01163826      -0.00267612       0.05764294
H        0.99687597      14.94975605      24.71731786      -0.01128056       0.00793768      -0.01681049       0.06289346
H        4.32004944      16.75042890      22.70988976      -0.00138896      -0.00100561      -0.01963166       0.05920365
H        5.62787922      14.70308688      22.92484210       0.00865879      -0.01949647       0.00037818       0.04533487
H        6.54769377      14.17771792      24.72486768      -0.02589863      -0.01786390      -0.00472995       0.04854105
H        9.68853991      11.29811289      24.15850633       0.00452550       0.00185937       0.01564297       0.04667764
H       10.25630306       8.89509007      24.22238331       0.00093235       0.00998885      -0.00716024       0.01999195
H        9.60340724      15.98101191      24.43554929      -0.00603924      -0.01106672       0.00299326       0.06146545
H        8.25080003      15.49466414      23.40525204      -0.01066874       0.01720450       0.03412368       0.04519646
H        8.05403213      15.58055808      25.17250735       0.03508096       0.01315196      -0.01202338       0.05687071
H       10.90937839      12.84744030      24.90490004       0.02522739       0.01417009       0.04055994       0.06147400
H       11.16197194      14.56062457      24.57981639       0.01691123      -0.02949128      -0.02151417       0.05922625
H       10.81327770      13.44850425      23.23876777       0.00866205       0.02224586       0.00321388       0.04796823
H        4.70476788       9.73253891      18.39946307       0.00245512      -0.02259688      -0.03736967       0.05699505
H        3.56259103       7.90915697      17.15512949      -0.01801972       0.00145909       0.00989021       0.06717812
H        2.47624558       5.36915352      22.34782781      -0.01995571      -0.01442043       0.00518063       0.07757276
H        3.17765569       4.90928843      26.58147343      -0.02343451      -0.00497828      -0.01442262       0.07303185
H        5.68081676       6.35896519      31.62302797      -0.01010511       0.01578245      -0.00409726       0.06972377
H        6.50071738       8.42518677      30.53428760       0.01820819       0.00822216       0.00711498       0.05771117
H        5.84989567      11.01236618      22.24805036       0.02083892      -0.00859357      -0.02078434       0.07400856
H        3.90061005      11.96598391      21.05192823      -0.02769033       0.00784375       0.00397165       0.04847157
H        4.68194136      11.64923816      19.50083535      -0.00610667      -0.00575089      -0.02640767       0.05190259
H        5.41435731      12.77053876      20.64213131      -0.00301312       0.00860345      -0.00765474       0.05070171
H        7.59251891      11.32420015      20.50684517      -0.01125325       0.00408544       0.00859720       0.05042165
H        6.83087938      10.08641858      19.50683642       0.00522254      -0.00308365      -0.00979274       0.05030780
H        7.51811491       9.65525285      21.07557631      -0.00592583       0.00687196      -0.01663353       0.05264712
H        0.52449551       4.23345801      22.88113790       0.00798395      -0.01284701      -0.00080337       0.04146971
H        1.91248466       3.23909963      22.40674446      -0.01043943      -0.00339173       0.00335318       0.04400694
H        0.57154667       2.52139128      23.28963664       0.01014860       0.00544297      -0.00827816       0.04302553
H        3.50527960       2.38241258      24.15402010       0.00804763       0.01555592      -0.00047993       0.03961768
H        3.24216710       2.71757062      25.86458807      -0.00806542       0.00839572      -0.00524477       0.04412692
H        2.14467330       1.64342809      25.00130872       0.00189399      -0.00146487      -0.00747939       0.04428397
H        0.05930780       3.07122076      25.54772407       0.01389095       0.01540219       0.00443799       0.04390921
H        0.18780056       4.82636247      25.39507306       0.00546770      -0.01952056      -0.00835321       0.03938497
H        1.16225135       3.96480591      26.58656109       0.00017974       0.00629650      -0.01593936       0.04373578
H        6.57109281      10.52819176      26.81750175       0.01334317      -0.01688657      -0.00165441       0.06842461
H        8.62625077      10.68650261      28.16291858      -0.00109555      -0.01024724      -0.00376430       0.05234580
H        8.47766947       9.07593627      27.45309056       0.01778624       0.00377972      -0.00840567       0.05280067
H        8.12292409       9.32273313      29.16329939       0.01665817       0.00990031       0.00506935       0.05190199
H        5.91420675      10.60949427      29.79985944      -0.00930058      -0.00935374       0.00825316       0.05205126
H        6.44672775      11.96315651      28.80456299      -0.00942707      -0.00765483       0.00160158       0.05396503
H        4.88950712      11.19444842      28.48384398       0.00143418      -0.00746825       0.01511491       0.05090504
