125
Properties=species:S:1:pos:R:3:forces:R:3:charge:R:1 energy=-6720.75800068719 free_energy=-6720.75800068719 dipole="1.1285721031058202 2.754442809492721 0.3095037587783654" pbc="F F F"
C        4.76000800       9.74426055      30.35686158      -0.02184083      -0.00730913      -0.00025885      -0.11074370
C        3.90487063       8.57870894      29.85337367      -0.01323926      -0.00271450       0.00239988       0.04813914
C        2.48988859       9.06081908      29.54418520      -0.00293028       0.00311746       0.00034407      -0.12505338
N        4.47156239       7.98122776      28.65361267      -0.00493861       0.00918981      -0.01100222      -0.01767959
C        3.67639040       7.53689570      27.63739909      -0.01677287       0.00866438       0.00171628      -0.15533347
N        4.52270756       7.05823638      26.68802091       0.01529394      -0.00810108       0.00541736       0.00615339
C        4.09808055       6.49491481      25.45890131      -0.00972386      -0.00540437       0.01171282       0.07029027
C        3.41804372       5.28053655      25.45122055      -0.00128211       0.00141169       0.00030376      -0.04402664
C        2.96624766       4.71040095      24.26722675       0.00587886       0.00138197       0.00053938       0.02034885
C        2.18959613       3.40577573      24.21639387       0.00230283       0.01010101      -0.00811906       0.02766672
C        0.76476577       3.73230115      23.74690514      -0.00724695      -0.00263569       0.00012003      -0.11654584
C        2.12201229       2.70602889      25.57635510      -0.00179154       0.00950058      -0.01440509      -0.11440074
C        2.85106038       2.45186280      23.21241875       0.00178499      -0.00407924       0.00138659      -0.11660705
C        3.20218622       5.39570674      23.07617967      -0.00285141      -0.00138637      -0.00094721      -0.04447443
C        3.86636353       6.60234079      23.11767193       0.01014781      -0.01166487      -0.00791684       0.05271777
C        4.33722114       7.19456387      24.29119067       0.00676074      -0.02866185       0.00238587      -0.04750544
Ir       5.19899984       9.01723232      24.16100393       0.01851105      -0.01862546      -0.00324118       0.08364679
C        4.77567872       8.58630404      22.29038701       0.00380760       0.00743285      -0.00415834       0.06871521
N        4.14659160       7.41402699      22.01395308      -0.01137060       0.00882375       0.00523471       0.03406848
C        4.01661260       7.26457481      20.67112063      -0.00485377      -0.00429146      -0.00654213       0.13497567
N        3.43267833       6.28203279      20.01917806       0.02262141       0.01504542      -0.02741453      -0.20674672
C        3.44183570       6.39462615      18.70000165       0.01525322       0.00493511      -0.02721070       0.06237951
C        2.78088904       5.26972087      17.94102796       0.01486171       0.00436887       0.00259652       0.48534654
F        3.67293841       4.57649717      17.21063887      -0.01476806      -0.00324184      -0.01235516      -0.20178560
F        1.86737019       5.73018832      17.06566537       0.01073506      -0.00508177       0.00953971      -0.20514621
F        2.16121556       4.39942567      18.73284817      -0.00312549      -0.00057524      -0.01403303      -0.18093282
C        4.02063655       7.45111513      17.99931406       0.00005721       0.01315279       0.00122570      -0.04221679
C        4.63465150       8.48811936      18.69178671      -0.01907827      -0.00281917      -0.00388377      -0.02210835
C        4.62900614       8.40455908      20.07596255      -0.01111551      -0.01871898      -0.00876542       0.03862071
N        5.08230510       9.18841362      21.10963480      -0.00128765      -0.01711328      -0.01781622      -0.00060203
C        5.87688827      10.40387571      21.03098352      -0.01187226      -0.01028140      -0.00881303       0.03686322
C        7.25553917      10.09311158      20.45543630      -0.00352607      -0.00625421      -0.02444782      -0.11890732
C        5.15305715      11.50251052      20.26061281      -0.00927723       0.00068668      -0.01462582      -0.12180021
C        3.42746301       9.93977170      24.55469446      -0.00519857      -0.00051823      -0.00090220      -0.07800203
C        2.18316212       9.30118061      24.51210890      -0.00393217       0.00238374       0.01031824      -0.03584163
C        0.97835947       9.92683888      24.82349925      -0.01328712      -0.02720269       0.00474874      -0.03237518
C       -0.28366797       9.11273826      24.79592757       0.01092134       0.02063715       0.00610204       0.48201148
F       -0.59588090       8.61338076      26.00931142      -0.00079349       0.01836457      -0.01572548      -0.20968575
F       -1.35604559       9.82761346      24.40705358       0.01422379       0.00006035       0.00679210      -0.21065019
F       -0.21493250       8.05752631      23.96815148      -0.02186258       0.04214695       0.01240066      -0.20865714
C        0.93262495      11.25866514      25.19413379      -0.01391067      -0.03034901      -0.02084079      -0.03236528
C        2.14039423      11.93447892      25.24158652      -0.00864940      -0.01970073      -0.01023554      -0.01087402
C        2.44420136      13.28786325      25.60434922       0.00079598       0.00469719      -0.00187952      -0.00491294
C        1.64177625      14.35538645      25.97364885      -0.00342507       0.00531205       0.02379910      -0.02709670
C        2.25853653      15.54308995      26.32915058       0.00574728       0.01353865       0.01833949      -0.03464084
C        1.43406778      16.75715952      26.64270293       0.00098369      -0.00832980       0.00341475       0.48522374
F        1.28441263      17.55021159      25.55811877       0.00795673      -0.01037654       0.01158435      -0.21443974
F        1.98265715      17.53687222      27.58999021       0.01217861      -0.02195221      -0.00437491      -0.20917223
F        0.19562177      16.46454297      27.06125520       0.00304662      -0.01748972      -0.00234798      -0.20479915
C        3.65027076      15.64013377      26.38495381       0.00146672      -0.01153428       0.00672849      -0.03149952
C        4.45288484      14.58176882      26.00776632      -0.00007894      -0.00663268       0.01778097      -0.04756830
C        3.84952124      13.41870180      25.53789719       0.01090069      -0.01590077      -0.00178051       0.05212781
N        4.39628398      12.23471746      25.06133899       0.02450580      -0.00209638      -0.00818803      -0.03872911
C        3.36157556      11.29128573      24.92805459       0.01552047       0.00360784      -0.00711507       0.04946914
C        5.71704837      12.10330977      24.64219501       0.00669992      -0.01109391      -0.02554963       0.14052996
C        6.43398210      13.22905713      24.26256847      -0.00350141       0.00932284       0.00548419      -0.10779500
C        7.81360572      13.13961446      24.00769194      -0.01128822      -0.00514711       0.00471127       0.07570046
N        8.54637267      14.22932509      23.68144591      -0.00515792      -0.01365461       0.00033874      -0.06550033
C        7.96945653      15.55273652      23.68026735       0.01186760      -0.00053361       0.00465309      -0.05090567
C        9.92884599      14.09684788      23.28694014       0.00968977       0.01030381      -0.01468613      -0.05309590
C        8.37740053      11.85552764      24.07493234       0.01905217       0.00960324       0.01518265      -0.09128640
C        7.55925705      10.75679466      24.25588284      -0.00010461       0.00871250      -0.00187033       0.08410297
N        6.24329482      10.87459255      24.56377601       0.01355851       0.00401575       0.00503885      -0.18980387
C        8.02253581       9.42172665      23.97065381      -0.01429597       0.01116931       0.00267692       0.02152642
C        9.24357420       8.92681301      23.50874939      -0.02169956       0.01325487       0.02539600      -0.07440717
C        8.93745376       7.61460689      23.14302431       0.01069070       0.01779607       0.01433589       0.02332982
C        9.85327194       6.64296345      22.49859406      -0.00413466       0.00025097       0.00304010       0.48458770
F       11.00752836       6.47611777      23.16776212      -0.00665813       0.00420371       0.01061692      -0.21022254
F        9.32678367       5.43492719      22.30850494       0.00255518      -0.00823372      -0.00145140      -0.19331828
F       10.22936157       7.08350133      21.26281899      -0.00441380      -0.00031736      -0.00602195      -0.23415579
N        7.64351321       7.35053856      23.35723739       0.01468265       0.00286931      -0.00224714      -0.19792825
N        7.10541591       8.42424184      23.87099802      -0.00054001      -0.00534834       0.00266667      -0.06212854
C        5.82487640       7.17569058      27.08264232       0.01166230      -0.01675019      -0.00135557       0.14038958
N        6.90345932       6.76588461      26.44733193      -0.00890035       0.00833861       0.01210582      -0.23054604
C        8.03795689       6.91641419      27.11175040      -0.00391447       0.00668321       0.00663168       0.05571340
C        9.30024793       6.44569927      26.43997446       0.00035566      -0.00641650      -0.00408544       0.48694804
F       10.07033576       7.48696039      26.05189497      -0.01819944       0.03176718      -0.00725191      -0.21652177
F        9.10320610       5.68072106      25.37659958      -0.00671646      -0.01701471      -0.01345273      -0.18052562
F       10.07046084       5.73821827      27.29091199       0.01281552      -0.01725681       0.03335850      -0.21362701
C        8.13926520       7.45641281      28.39241724       0.00171155      -0.00039967      -0.00278793      -0.05093268
C        6.99999007       7.88616627      29.05684151       0.01199224      -0.00540218       0.01175577      -0.03443072
C        5.79675643       7.75733254      28.38227150      -0.01293708      -0.03307966       0.01570770       0.03104723
H        5.16702665      10.30606715      29.51897575      -0.00703201       0.01866313      -0.00256377       0.04015019
H        4.14318116      10.41471271      30.94829690       0.00140115       0.00928442       0.01868745       0.05211806
H        5.57666419       9.40449613      30.98666622       0.01595398       0.02437501      -0.00530117       0.03961203
H        3.85095491       7.80273907      30.63107201       0.03073198       0.00860281      -0.00327934       0.04034272
H        2.02471192       9.44292633      30.44886180       0.00729881      -0.00075378      -0.00849400       0.04967993
H        2.52613635       9.85019596      28.79746592      -0.03074942      -0.00036263       0.00231192       0.05098980
H        1.89211519       8.24811310      29.14637441      -0.01068589      -0.00203847       0.00389624       0.07620247
H        3.24020296       4.80531434      26.40217908       0.00785714      -0.00649603      -0.01458769       0.06608759
H        0.16298533       2.82774930      23.71236950      -0.00306910      -0.01714137       0.01290448       0.04628196
H        0.77977762       4.17268593      22.75445525      -0.02272226      -0.00284884      -0.00757032       0.04627456
H        0.29226181       4.43957549      24.42413085       0.00542193      -0.00277392       0.01755891       0.04272196
H        3.11974749       2.51293532      25.96374841      -0.00375593       0.00080069      -0.01120164       0.03973683
H        1.56588582       3.29947353      26.29801257       0.00492640       0.00566997      -0.01026308       0.04092884
H        1.61406968       1.75037227      25.46578434      -0.01156061       0.01128266       0.00608154       0.04359563
H        2.84184463       2.86508910      22.20889240       0.00870687      -0.01608718      -0.00732337       0.04722201
H        3.88266044       2.25503839      23.49345903       0.00392501       0.01601498       0.01907443       0.04157182
H        2.31313690       1.50717445      23.19086712      -0.00281172      -0.01204354       0.00954513       0.04485825
H        2.87164689       5.01717593      22.12361427      -0.00537190      -0.00456575       0.00371904       0.08075229
H        3.98256471       7.45948029      16.92149155       0.01304021      -0.00264602       0.02313404       0.07537321
H        5.08155906       9.30488808      18.14840470       0.00832683      -0.00326712       0.02950188       0.06603908
H        5.98978519      10.72904053      22.06943956       0.01067779       0.02506192      -0.00643577       0.07161648
H        7.75166176       9.32874532      21.04734125      -0.00735286      -0.00052557       0.00218817       0.06055391
H        7.86969744      10.98900784      20.46319587       0.00153253       0.00512504       0.00974271       0.05649041
H        7.17871996       9.73495823      19.43359175       0.00511962      -0.00508423      -0.03968650       0.05730311
H        5.68147092      12.44197710      20.39793914      -0.01926025       0.00977536      -0.00159226       0.05751848
H        4.13731025      11.61595258      20.63041099      -0.00297141       0.00731013       0.01036348       0.05471619
H        5.11683256      11.28752501      19.19774897      -0.01395876      -0.00452202      -0.02268708       0.05783709
H        2.13506535       8.26039056      24.23180011       0.01474642       0.01836796       0.01548948       0.06883376
H        0.00159336      11.74833864      25.42937842       0.00542319       0.00964450       0.01632172       0.05739894
H        0.56842206      14.26166720      25.99156009      -0.02048723      -0.00250841      -0.00311162       0.06537983
H        4.10133931      16.55499736      26.73771293      -0.00376732      -0.01061773      -0.00683950       0.05677788
H        5.52159220      14.66803865      26.12014819      -0.00595535      -0.01014107      -0.00282485       0.04526923
H        5.90948829      14.15462056      24.12066694       0.00502292       0.00477953       0.01162192       0.04451786
H        8.76887151      16.28929624      23.68066788       0.00644930       0.01354326      -0.00224030       0.06200502
H        7.36619487      15.71781700      24.57401761       0.00986840      -0.01268319       0.00451712       0.05610335
H        7.34308389      15.72138808      22.79762604      -0.00582261      -0.00810762       0.01157288       0.04922706
H       10.05846138      13.24653298      22.61704405       0.00407852      -0.00092834      -0.02242629       0.05932565
H       10.23652417      14.99136016      22.75272290       0.02052724       0.03667843      -0.01087845       0.06024634
H       10.58490635      13.96514075      24.15265473      -0.00367317      -0.01189918       0.01313690       0.05450643
H        9.42636138      11.68216520      23.92357873       0.01420584       0.01549477      -0.02244988       0.04668097
H       10.19590623       9.41228710      23.45869501      -0.00492441      -0.01563389      -0.00950900       0.02432693
H        9.10543007       7.51002515      28.86702728       0.00229732       0.02345104       0.01806119       0.05446089
H        7.07844826       8.26797162      30.06130474      -0.01871237       0.01458934      -0.00869055       0.04678256
