116
Properties=species:S:1:pos:R:3:forces:R:3:charge:R:1 energy=-6806.216948684917 free_energy=-6806.216948684917 dipole="-0.9990488855127378 4.157826541851341 -1.000158746906752" pbc="F F F"
C        3.99628385      10.99116701      21.82090564      -0.02913016      -0.01358699       0.01809245      -0.13439307
C        4.67985688      10.23782359      20.68852646       0.00123437       0.01807534       0.00314284       0.04213326
C        5.77103857      11.08280199      20.02992308      -0.00314646       0.02762994       0.00742766      -0.12224430
N        5.20339738       8.96497364      21.16063024      -0.00404235       0.00762656      -0.00074301      -0.00817242
C        5.29400319       8.53887241      22.45489496       0.03241178      -0.00174872      -0.01571190      -0.01737278
Ir       6.60263907       9.33230626      23.97764783      -0.00310261       0.02407564      -0.00771631       0.00792957
C        5.40667111       8.17172936      27.43473496      -0.01080700      -0.00001639       0.00160891       0.06068522
N        5.44476537       6.79613541      27.14648038       0.02824504       0.00141141       0.01015419      -0.02241111
C        5.40430508       6.16843968      25.90225901      -0.00389922       0.03015268      -0.01161814       0.08003398
C        4.90609867       4.86829463      25.77118019       0.01606382       0.00275559       0.01814299      -0.04865204
C        4.70412368       4.32654513      24.51252691       0.00858466      -0.00872341       0.02115915      -0.01086009
C        4.11066519       2.94260849      24.43201200       0.00189670      -0.00962393       0.00954358       0.48660106
F        2.95960532       2.86122660      25.13047873       0.03420323       0.02523972      -0.00554837      -0.20694960
F        4.91977995       2.00125839      24.93061236       0.00936351       0.01182570      -0.00911014      -0.19227947
F        3.80876437       2.57820130      23.18037631       0.01381316      -0.01477017       0.00362164      -0.19786878
C        4.93765206       5.05530843      23.35893451      -0.00121502      -0.01332489       0.01214770      -0.04340714
C        5.43920820       6.34463954      23.49504803       0.02266326      -0.01528720      -0.00686211       0.08414099
C        5.73769330       6.86783923      24.74623344      -0.00339101      -0.00786224      -0.01494811      -0.05578487
N        5.51466525       7.17784740      22.38558218      -0.01466789       0.00191332      -0.00311567       0.01692273
C        5.65480482       6.77787843      21.08627343      -0.00096495       0.01627891       0.00976666       0.14121453
N        5.93442384       5.57707128      20.63271375      -0.01364077       0.00901942       0.00864670      -0.21624388
C        6.07988926       5.49287537      19.31826296       0.02570340       0.00745709      -0.00552451       0.06797988
C        6.47010538       4.13443116      18.79053666       0.02187382       0.00236350      -0.03183213       0.48636540
F        6.84563613       3.28670947      19.73942459      -0.01846128      -0.00136560      -0.00449689      -0.17665860
F        5.44551397       3.55126049      18.12875719      -0.03081005       0.00452837      -0.00116407      -0.21076319
F        7.47058299       4.21606068      17.89961433      -0.02350432      -0.00471612      -0.00530947      -0.19895954
C        5.90219992       6.55326268      18.43310917       0.00876673      -0.00600254      -0.01018510      -0.04016009
C        5.56453328       7.81140504      18.91776245       0.00890682      -0.00406338      -0.00545502      -0.03143946
C        5.46128545       7.92985884      20.29421352       0.01493395       0.01108187      -0.00576994       0.03405531
C        5.12573228       6.13141851      28.31765539       0.01148616      -0.00490347       0.02218079       0.14038011
N        5.15039541       4.83475135      28.51836792       0.01471832      -0.00057608       0.01561430      -0.23982732
C        4.78465481       4.41651319      29.73332139      -0.00625951      -0.01853352       0.00982774       0.05367165
C        4.81086654       2.91645711      29.88553216      -0.00085443       0.00314885      -0.00541634       0.48547533
F        4.41937851       2.51693112      31.10633833       0.00378673       0.01503290      -0.01412650      -0.20723441
F        6.02887607       2.39800860      29.68601110       0.00401221       0.01742599       0.02104870      -0.19298955
F        3.99078227       2.31531871      29.00840187      -0.00581897       0.00760178       0.01419816      -0.19778248
C        4.38259232       5.25511554      30.75937222      -0.00021591      -0.01337566      -0.01402690      -0.04179720
C        4.34832724       6.62965169      30.54276125      -0.01044269      -0.00870950       0.00645407      -0.03468653
C        4.73379376       7.07940932      29.28814497      -0.02805222       0.00177609      -0.00463897       0.05055326
N        4.84160855       8.31277897      28.71466951      -0.00397468       0.00494261      -0.00081447      -0.05918731
C        3.91398714       9.41921392      28.97519186       0.01742503       0.02209343       0.04017748       0.04276834
C        2.48085563       8.90570658      28.80953783       0.02599284      -0.00555331       0.01095858      -0.11831628
C        4.10615090      10.07936271      30.33589465      -0.03565656       0.01619348       0.01974173      -0.12297686
C        6.05231813      10.09267366      25.77296931      -0.00550944       0.01099569       0.00781432      -0.09383609
C        6.10805982       9.35291314      27.00689676       0.02378739      -0.01772339      -0.00840086      -0.01746983
C        6.70830094      10.01606865      28.14543639      -0.01925392      -0.01814845      -0.00045762      -0.05739320
C        7.47893444       9.21475559      29.15586442      -0.00215774      -0.00967430       0.00780256       0.48437456
F        8.72022098       9.72232856      29.30348389      -0.01001469       0.01548184       0.00380113      -0.21277753
F        6.96036891       9.20446858      30.40417456       0.00211024       0.00085923      -0.01294812      -0.22033769
F        7.65136054       7.92465808      28.82757066      -0.01019231       0.01301761      -0.03551238      -0.21508400
C        6.70927068      11.38475363      28.28519530      -0.00486548      -0.01329764      -0.00398254      -0.03433905
C        6.25183819      12.12438273      27.20226594      -0.02994173      -0.01009945      -0.01930990      -0.01962755
C        5.89824982      13.49307046      26.99477200       0.02230958       0.01176353       0.00520291      -0.00123852
C        5.62193577      14.52956409      27.87542869       0.01369258      -0.00375178      -0.00729959      -0.03221045
C        5.12143836      15.71020478      27.35096081      -0.00287537      -0.00803421      -0.02075885      -0.03238283
C        4.78455521      16.86866987      28.24376744      -0.01846576      -0.00590136      -0.02181238       0.48498811
F        3.52152424      17.30040642      28.05737696       0.01498272       0.00173982       0.01177958      -0.21148027
F        4.90007234      16.59133214      29.54849607       0.01498900       0.00831561      -0.01922885      -0.20452758
F        5.57279755      17.93790008      28.00844478      -0.00436396      -0.02740998       0.01302968      -0.21199781
C        4.87528647      15.85179703      25.98535542       0.01525100      -0.02230487      -0.02014176      -0.03266463
C        5.17742018      14.82969157      25.09829944       0.02160653       0.00360805      -0.00276670      -0.04559891
C        5.72841640      13.66049302      25.59757945      -0.00161224       0.00416580       0.02282808       0.05241963
N        6.07393183      12.47152862      24.94415800      -0.01217414       0.00483553       0.00539717      -0.04678103
C        6.17672930      11.46866626      25.94499993       0.00866942       0.00625361      -0.01860253       0.04570654
C        6.84962656      12.42014928      23.79615406       0.00475252      -0.00010285       0.01980455       0.13835964
C        7.23151903      13.58138729      23.13914394      -0.01516846       0.00213939      -0.00181516      -0.10741191
C        8.10369501      13.54528141      22.03783296      -0.00308216      -0.00321060      -0.00225830       0.07667922
N        8.41363948      14.65578322      21.33406230       0.00260650       0.01432403      -0.03349226      -0.05533105
C        9.40624001      14.60123606      20.28622615       0.03017321       0.00545563      -0.02022146      -0.05753627
C        7.74248098      15.90713071      21.58839867       0.00081288       0.01082338       0.01182043      -0.05677678
C        8.61874601      12.28447000      21.69745676       0.00200750      -0.00880999      -0.00396996      -0.08912155
C        8.17112317      11.16146706      22.36040570      -0.01690557      -0.01172280      -0.01560228       0.08071253
N        7.28164434      11.20828272      23.38809603      -0.00961889      -0.00492201      -0.00151634      -0.10399396
C        8.53035370       9.84102050      21.91962365       0.02274754      -0.01927684       0.00217294       0.03017951
C        9.33422620       9.35437793      20.88880779      -0.02009146       0.01304944       0.00549769      -0.07714298
C        9.11667133       7.97796393      20.94092385      -0.00952833       0.02214501       0.01094932       0.02023169
C        9.68383399       6.95629168      20.03049157       0.00512982       0.00175143       0.00481704       0.48416531
F        9.78983272       7.44239212      18.77073691       0.00111856      -0.02452575       0.00588359      -0.22440699
F       10.92539746       6.56126629      20.37132482      -0.02124589      -0.00155168      -0.00775984      -0.21051767
F        8.93523767       5.85061423      19.94275422       0.02642128      -0.00768300      -0.00269064      -0.20647280
N        8.25368053       7.66945129      21.91811986      -0.02868883       0.02327823      -0.01104604      -0.22719625
N        7.90917555       8.78930788      22.50191329      -0.00583830      -0.01540540      -0.02028441      -0.07171685
H        4.70483770      11.20264955      22.61896399      -0.02280352      -0.00201528      -0.03460312       0.07968846
H        3.19095342      10.39327345      22.23921962       0.00348543       0.02308095      -0.01342769       0.06119774
H        3.58513890      11.92364824      21.44333020       0.02090664      -0.01920530       0.00126250       0.06133371
H        3.93013432       9.98592421      19.92369855       0.01760146      -0.00391030       0.02565378       0.05213271
H        6.36627175      11.58398267      20.78513680      -0.01311837      -0.01948664      -0.01324389       0.05353886
H        6.43224617      10.46389782      19.42832039      -0.01821779       0.02790858       0.00227654       0.05025716
H        5.31946698      11.83778912      19.39054637       0.00231369      -0.02877025       0.00725563       0.05139855
H        4.67636371       4.28225250      26.64470329      -0.00574434       0.00094450      -0.00169803       0.10766181
H        4.74217285       4.64481644      22.38285203      -0.00748552       0.00044557       0.01039281       0.09984229
H        6.03969886       6.38973145      17.37699677      -0.00743373       0.01076136      -0.01220764       0.07249753
H        5.41609452       8.64210736      18.24605401      -0.00722851      -0.01423464      -0.00002882       0.05823069
H        4.09153050       4.84045700      31.71098539       0.02472275       0.03090730      -0.00628330       0.07217608
H        4.04577891       7.29757901      31.33046311      -0.01800353      -0.01242241      -0.00290504       0.06179385
H        4.10650999      10.16605448      28.19830292      -0.00664907      -0.02703927      -0.00709521       0.05638712
H        2.23993011       8.18281858      29.58456711      -0.01945510      -0.00319167      -0.00174841       0.05265372
H        2.35305892       8.43322481      27.83740682       0.01167274       0.00500760       0.00801474       0.04341981
H        1.78525561       9.73660110      28.88120418      -0.00127430       0.00242806       0.00151777       0.05819896
H        5.07179690      10.56840657      30.40694684      -0.04533639      -0.01370043      -0.01450878       0.05874101
H        4.02722497       9.36332490      31.14630916      -0.00113090       0.00378870      -0.01334814       0.05828568
H        3.33198431      10.83111687      30.46976625       0.02191172       0.00225534      -0.01247471       0.05666666
H        6.27385336       7.82904092      24.83891511       0.00499974      -0.00644748       0.01217195       0.16234636
H        7.08895733      11.85233516      29.18022273      -0.01480374       0.03102335      -0.01348360       0.05225045
H        5.76921132      14.41225490      28.93677605      -0.00330496      -0.01271547       0.00640492       0.06386637
H        4.42596015      16.76506924      25.62564839       0.03051273      -0.02178355      -0.01334319       0.05668298
H        4.93459470      14.94696626      24.05360846      -0.00346773      -0.02039999       0.02194813       0.04854250
H        6.91176979      14.52874381      23.52281400      -0.01816346       0.01322545       0.03695220       0.05777500
H        9.11060840      13.91084478      19.49041177      -0.01120172       0.01479762       0.03183875       0.05748645
H        9.52685626      15.58786899      19.84731564       0.00216633       0.00517962       0.01879540       0.06438361
H       10.37479284      14.28827212      20.68369020      -0.00361560      -0.03132560      -0.00636233       0.06015927
H        8.07261317      16.36133430      22.52658068       0.00250293       0.00314229       0.03425253       0.05641202
H        7.95821350      16.60057907      20.78030288       0.00308024       0.02095045       0.00015097       0.06480632
H        6.66074058      15.76292638      21.62655601      -0.00239337      -0.01352076       0.01859226       0.05705636
H        9.32139391      12.15077816      20.89676005       0.01367129       0.01057431       0.00085992       0.05624295
H        9.96261725       9.89222036      20.21006670       0.01568286      -0.03360564       0.00217699       0.02395001
