116
Properties=species:S:1:pos:R:3:forces:R:3:charge:R:1 energy=-6806.216946190292 free_energy=-6806.216946190292 dipole="-0.999062476582506 4.157808355935051 -1.0002010252220521" pbc="F F F"
C        3.99628644      10.99116032      21.82093368      -0.02898930      -0.01392106       0.01821497      -0.13439512
C        4.67984088      10.23781284      20.68853735       0.00107461       0.01831507       0.00329262       0.04213383
C        5.77101700      11.08279791      20.02995155      -0.00310666       0.02803370       0.00733754      -0.12224436
N        5.20338442       8.96496902      21.16062538      -0.00402622       0.00738419      -0.00076068      -0.00816868
C        5.29400184       8.53887540      22.45488643       0.03254245      -0.00177138      -0.01537602      -0.01737450
Ir       6.60266021       9.33230607      23.97764864      -0.00323062       0.02410449      -0.00776528       0.00793040
C        5.40667079       8.17173409      27.43473076      -0.01077845       0.00009997       0.00138348       0.06068562
N        5.44476526       6.79614388      27.14647135       0.02833197       0.00116129       0.01001094      -0.02241331
C        5.40431316       6.16843708      25.90225063      -0.00389529       0.03030246      -0.01147299       0.08003302
C        4.90611886       4.86829027      25.77117814       0.01591977       0.00228940       0.01837236      -0.04865275
C        4.70412446       4.32654269      24.51252117       0.00855145      -0.00869818       0.02138504      -0.01085912
C        4.11067551       2.94259907      24.43200126       0.00218682      -0.00965454       0.00984194       0.48659905
F        2.95961970       2.86119551      25.13048416       0.03445807       0.02519688      -0.00583815      -0.20694893
F        4.91982438       2.00126164      24.93060405       0.00905039       0.01202447      -0.00926072      -0.19228401
F        3.80880066       2.57820115      23.18035987       0.01366761      -0.01485710       0.00375346      -0.19786460
C        4.93763752       5.05531141      23.35892928      -0.00107126      -0.01338275       0.01212217      -0.04340817
C        5.43920784       6.34463556      23.49504407       0.02269831      -0.01507232      -0.00668313       0.08414125
C        5.73769527       6.86784101      24.74622703      -0.00366082      -0.00833782      -0.01493798      -0.05578703
N        5.51467295       7.17785303      22.38559102      -0.01470119       0.00175104      -0.00380268       0.01692223
C        5.65479245       6.77787602      21.08627332      -0.00099109       0.01643477       0.00983966       0.14121306
N        5.93441356       5.57707332      20.63270662      -0.01360383       0.00882305       0.00898479      -0.21624344
C        6.07986977       5.49286548      19.31826088       0.02560823       0.00748537      -0.00562652       0.06797846
C        6.47009139       4.13441541      18.79054412       0.02166838       0.00278293      -0.03194335       0.48637054
F        6.84562374       3.28671422      19.73942055      -0.01823582      -0.00184164      -0.00378080      -0.17665498
F        5.44551864       3.55122465      18.12877085      -0.03123882       0.00448015      -0.00134549      -0.21076494
F        7.47055873       4.21603402      17.89962763      -0.02307118      -0.00453761      -0.00568437      -0.19895985
C        5.90215618       6.55324902      18.43310785       0.00889907      -0.00615107      -0.01028594      -0.04015984
C        5.56449515       7.81139140      18.91775068       0.00880812      -0.00402287      -0.00517309      -0.03143851
C        5.46125627       7.92984836      20.29420656       0.01499463       0.01119318      -0.00574596       0.03405370
C        5.12573623       6.13142001      28.31764283       0.01138081      -0.00468770       0.02223530       0.14038069
N        5.15039020       4.83475658      28.51835734       0.01485238      -0.00076616       0.01545882      -0.23982709
C        4.78466672       4.41651980      29.73331290      -0.00626702      -0.01862560       0.00988651       0.05367135
C        4.81088902       2.91646718      29.88554008      -0.00091527       0.00311972      -0.00545409       0.48547628
F        4.41939368       2.51694618      31.10634365       0.00381943       0.01505748      -0.01400038      -0.20723498
F        6.02889792       2.39802385      29.68602581       0.00418172       0.01739327       0.02106791      -0.19298970
F        3.99081518       2.31530850      29.00841971      -0.00594397       0.00757540       0.01402761      -0.19778238
C        4.38261454       5.25511789      30.75936534      -0.00021715      -0.01319189      -0.01389448      -0.04179729
C        4.34832909       6.62965365      30.54275299      -0.01044048      -0.00851204       0.00646223      -0.03468673
C        4.73378923       7.07940899      29.28813037      -0.02809167       0.00170860      -0.00444647       0.05055225
N        4.84160137       8.31277642      28.71465411      -0.00420722       0.00515752      -0.00055608      -0.05918653
C        3.91396273       9.41920571      28.97516923       0.01762299       0.02215257       0.04032000       0.04276709
C        2.48083531       8.90568641      28.80951038       0.02619430      -0.00559085       0.01107800      -0.11831659
C        4.10611940      10.07937385      30.33587013      -0.03598841       0.01629434       0.01973039      -0.12297546
C        6.05231904      10.09268223      25.77296050      -0.00548779       0.01094873       0.00793565      -0.09383763
C        6.10804409       9.35293368      27.00689970       0.02380481      -0.01802537      -0.00854805      -0.01746932
C        6.70828415      10.01607691      28.14543863      -0.01912853      -0.01813687      -0.00034573      -0.05739279
C        7.47890493       9.21476357      29.15588647      -0.00223440      -0.00955669       0.00761275       0.48437575
F        8.72019309       9.72231788      29.30349773      -0.00980456       0.01571664       0.00387523      -0.21277720
F        6.96034081       9.20448044      30.40419304       0.00199942       0.00097141      -0.01285882      -0.22033753
F        7.65133395       7.92467156      28.82760906      -0.01026111       0.01261667      -0.03568711      -0.21508312
C        6.70929126      11.38476317      28.28517894      -0.00504160      -0.01351623      -0.00413278      -0.03434030
C        6.25185213      12.12439188      27.20225705      -0.02999617      -0.01010055      -0.01957555      -0.01962764
C        5.89824433      13.49307442      26.99476635       0.02244608       0.01163667       0.00499447      -0.00123831
C        5.62193870      14.52955910      27.87542967       0.01373514      -0.00356090      -0.00763098      -0.03221129
C        5.12143036      15.71020112      27.35096921      -0.00292996      -0.00821910      -0.02076916      -0.03238281
C        4.78455310      16.86866494      28.24377314      -0.01844891      -0.00605422      -0.02160420       0.48498988
F        3.52152198      17.30039229      28.05739466       0.01488007       0.00184691       0.01173850      -0.21147906
F        4.90007771      16.59133470      29.54850691       0.01500528       0.00827996      -0.01928412      -0.20453107
F        5.57279847      17.93788309      28.00844414      -0.00430813      -0.02719844       0.01299036      -0.21199592
C        4.87525200      15.85178967      25.98537229       0.01545319      -0.02261335      -0.02056764      -0.03266550
C        5.17740339      14.82968831      25.09829706       0.02144845       0.00401814      -0.00269890      -0.04559891
C        5.72840928      13.66049647      25.59756809      -0.00157951       0.00407691       0.02300828       0.05241865
N        6.07394252      12.47153434      24.94414694      -0.01231237       0.00490977       0.00548910      -0.04677859
C        6.17673850      11.46867347      25.94498727       0.00863398       0.00624449      -0.01844369       0.04570508
C        6.84962832      12.42015470      23.79614379       0.00496143      -0.00015199       0.01964283       0.13835913
C        7.23153774      13.58139498      23.13914418      -0.01536041       0.00191694      -0.00177903      -0.10741180
C        8.10370710      13.54529774      22.03783997      -0.00275677      -0.00366437      -0.00253291       0.07668019
N        8.41368263      14.65579625      21.33408720       0.00254914       0.01480873      -0.03364445      -0.05532984
C        9.40626741      14.60124100      20.28623559       0.03019937       0.00586661      -0.02030525      -0.05753605
C        7.74251302      15.90714724      21.58840952       0.00084844       0.01076822       0.01174818      -0.05677741
C        8.61874752      12.28448087      21.69744348       0.00207514      -0.00876429      -0.00388695      -0.08912255
C        8.17113416      11.16147375      22.36039198      -0.01700373      -0.01156623      -0.01565766       0.08071235
N        7.28164769      11.20829058      23.38807435      -0.00971047      -0.00494535      -0.00127081      -0.10399563
C        8.53035822       9.84102712      21.91961521       0.02295721      -0.01946394       0.00220844       0.03017746
C        9.33424475       9.35437513      20.88880867      -0.02040582       0.01312310       0.00560147      -0.07714207
C        9.11667957       7.97796382      20.94092838      -0.00959990       0.02204461       0.01098783       0.02022996
C        9.68382537       6.95628207      20.03048908       0.00511597       0.00189471       0.00488767       0.48416540
F        9.78981282       7.44236474      18.77072646       0.00105713      -0.02444680       0.00588933      -0.22440780
F       10.92539415       6.56126419      20.37130429      -0.02120683      -0.00164048      -0.00770569      -0.21051739
F        8.93522088       5.85061114      19.94277044       0.02642417      -0.00775438      -0.00266678      -0.20647229
N        8.25368939       7.66945799      21.91813586      -0.02845480       0.02323763      -0.01126903      -0.22719585
N        7.90919385       8.78931508      22.50192653      -0.00586100      -0.01526797      -0.02047062      -0.07171303
H        4.70485672      11.20259201      22.61899579      -0.02291520      -0.00205342      -0.03464801       0.07969081
H        3.19092603      10.39329081      22.23923021       0.00357765       0.02309323      -0.01342535       0.06119627
H        3.58518366      11.92366283      21.44339298       0.02080812      -0.01896561       0.00109404       0.06133502
H        3.93010984       9.98592025      19.92371833       0.01757858      -0.00387803       0.02559271       0.05213297
H        6.36623972      11.58398864      20.78516477      -0.01312500      -0.01947604      -0.01310371       0.05353873
H        6.43225290      10.46392450      19.42836199      -0.01817439       0.02769045       0.00207846       0.05025738
H        5.31944731      11.83779461      19.39058072       0.00232361      -0.02885534       0.00722657       0.05139744
H        4.67642854       4.28223260      26.64472416      -0.00570318       0.00123752      -0.00222944       0.10766366
H        4.74218964       4.64481793      22.38284004      -0.00757773       0.00045140       0.01044916       0.09984230
H        6.03965680       6.38970444      17.37700174      -0.00745112       0.01078579      -0.01237781       0.07249672
H        5.41603881       8.64208469      18.24603766      -0.00721347      -0.01417199      -0.00003155       0.05823181
H        4.09159561       4.84045421      31.71098662       0.02462999       0.03091105      -0.00621001       0.07217626
H        4.04577759       7.29759373      31.33045300      -0.01792753      -0.01261598      -0.00306837       0.06179288
H        4.10649240      10.16604995      28.19828414      -0.00670098      -0.02709007      -0.00711359       0.05638760
H        2.23991128       8.18280592      29.58454873      -0.01942433      -0.00323853      -0.00183083       0.05265417
H        2.35305402       8.43320730      27.83737751       0.01161220       0.00496972       0.00803013       0.04342130
H        1.78523530       9.73657353      28.88118334      -0.00139013       0.00256457       0.00145646       0.05820006
H        5.07175940      10.56843324      30.40692644      -0.04544475      -0.01372574      -0.01453639       0.05874100
H        4.02718347       9.36335446      31.14630037      -0.00105903       0.00372729      -0.01338597       0.05828486
H        3.33192220      10.83111342      30.46972761       0.02220539       0.00213740      -0.01253606       0.05666490
H        6.27383684       7.82902749      24.83892369       0.00526173      -0.00593093       0.01210965       0.16234646
H        7.08899487      11.85233227      29.18018810      -0.01466901       0.03126736      -0.01307206       0.05225110
H        5.76926781      14.41226010      28.93675943      -0.00334355      -0.01276734       0.00677633       0.06386751
H        4.42592736      16.76506300      25.62566973       0.03047142      -0.02177371      -0.01336756       0.05668275
H        4.93459213      14.94697409      24.05359729      -0.00346270      -0.02039455       0.02218182       0.04854079
H        6.91177586      14.52874101      23.52279848      -0.01826868       0.01358024       0.03715757       0.05777511
H        9.11060893      13.91088537      19.49040928      -0.01126138       0.01462681       0.03172455       0.05748652
H        9.52693387      15.58788028      19.84732676       0.00199691       0.00495813       0.01902829       0.06438117
H       10.37480944      14.28824684      20.68368375      -0.00344757      -0.03144207      -0.00628992       0.06016064
H        8.07261565      16.36134659      22.52660291       0.00251672       0.00311473       0.03427921       0.05641289
H        7.95826967      16.60060967      20.78032769       0.00304745       0.02082192       0.00020522       0.06480607
H        6.66077171      15.76293281      21.62653772      -0.00236401      -0.01346695       0.01856760       0.05705538
H        9.32140688      12.15079432      20.89675443       0.01361852       0.01059070       0.00087217       0.05624188
H        9.96261446       9.89223104      20.21005988       0.01573403      -0.03366006       0.00215138       0.02395055
