77
Properties=species:S:1:pos:R:3:forces:R:3:charge:R:1 energy=-3916.9859963231897 free_energy=-3916.9859963231897 dipole="-0.5656377686102659 -0.23087666080145705 -0.570772316774062" pbc="F F F"
C       -2.09315234      -1.28980097       3.52613841      -0.01030451       0.00316520      -0.00513698      -0.06353828
N       -0.72332286      -1.05418393       3.16406037       0.00399702      -0.00123609       0.00210189       0.03601658
C        0.35390500      -1.21389809       3.99242443       0.00171037      -0.00068759      -0.00435904      -0.02035035
C        1.46957648      -0.95119919       3.26267780       0.01117659      -0.01415190       0.00718715      -0.01456973
N        1.04969666      -0.64654120       2.00207313       0.02900828      -0.00113638       0.00958665       0.04697893
C       -0.30931357      -0.69642902       1.93740869       0.01767620       0.03066100       0.02825317       0.01148070
Ir      -1.06519566      -0.12020042       0.06625619       0.04603623      -0.01919831      -0.00130508       0.02765427
C       -0.92524011       0.07159273      -2.01468690      -0.01084680       0.01106803      -0.03732822      -0.00175049
N       -1.69061875       0.16984839      -3.12331089       0.00409137      -0.00048664      -0.03055072       0.02818597
C       -3.12429242       0.06900787      -3.15279081       0.00100061      -0.01419761       0.00431988      -0.05622392
C       -0.90173193       0.35980960      -4.22040778       0.01454884       0.00404795      -0.01231123      -0.01814554
C        0.39244975       0.37575081      -3.80002779       0.00327602      -0.00759349      -0.00689943      -0.01557144
N        0.36558772       0.19259836      -2.44911290       0.01759966       0.00371909      -0.02069307       0.03396323
C        1.38863320       0.09275687      -1.49702796       0.02432298       0.01570103      -0.02277934       0.04534718
C        2.73280983       0.41503049      -1.65401751       0.03008196      -0.00039044       0.01183726      -0.05447859
C        3.58841623       0.38333490      -0.54788930       0.03048678      -0.02673565       0.00889793       0.01494463
C        5.00831675       0.91172480      -0.71661431       0.01117593      -0.02906745      -0.00410123       0.02724893
C        5.87709735       0.68768209       0.52541711      -0.01366571       0.00061866      -0.00424584      -0.11061781
C        5.70884547       0.25010015      -1.91265844      -0.00332085      -0.01201522       0.01030539      -0.10759127
C        4.89851172       2.42539322      -0.95840814      -0.00905785      -0.01450695       0.00804085      -0.10903290
C        3.10094457      -0.01830457       0.69326021      -0.00954151      -0.01143577      -0.00814492      -0.05551232
C        1.74926698      -0.33894904       0.82992607      -0.01755286       0.00518431      -0.02963187       0.05299614
C        0.89650282      -0.28872619      -0.25832368      -0.00353719      -0.01192870      -0.04441993      -0.06000958
C       -1.82222365      -2.03488080      -0.14891963      -0.00582289       0.00665310       0.02244585      -0.05902700
C       -0.97771581      -3.14298546      -0.16801860       0.00799764       0.00787114      -0.00246135      -0.03717837
C       -1.45209280      -4.45005323      -0.20175868      -0.02429817       0.00818601       0.02157753      -0.04560302
C       -0.50889122      -5.60855777      -0.14473152      -0.00830143       0.00169596      -0.01204299       0.48318266
F       -0.68379789      -6.47989790      -1.15898529      -0.01335135      -0.00143938       0.00930932      -0.21345455
F       -0.66509416      -6.33584911       0.98564547       0.01630148      -0.00142370      -0.02075088      -0.21776729
F        0.78410368      -5.25273617      -0.17840610       0.00389670      -0.02345249       0.00941812      -0.21008478
C       -2.82092781      -4.69073346      -0.24639264      -0.02700184       0.00757644      -0.01522003      -0.03098642
C       -3.67844183      -3.61728841      -0.26508720      -0.02063486       0.00867079       0.02725719      -0.05414947
C       -3.20156494      -2.29827545      -0.18966063      -0.01886332      -0.00597371      -0.00343368       0.13992193
O       -4.23456558      -1.39269637      -0.20124410       0.01078963       0.00157614      -0.01195883      -0.24734261
C       -4.19984520      -0.05753743       0.04902271      -0.01558716      -0.02167609      -0.00925258       0.20887165
C       -5.41865932       0.58726554      -0.04235440       0.00370867      -0.01591007       0.04536027      -0.08780236
C       -5.48067534       1.97119965       0.21451628       0.00663843      -0.01259483       0.02410469      -0.04651572
C       -4.31384759       2.63911738       0.52843322       0.00229959      -0.01559330       0.01200832      -0.05135268
C       -3.11251293       1.94802376       0.59919438      -0.00136732       0.00342994      -0.01487669       0.04078988
N       -3.05951962       0.56647845       0.36828776      -0.03417697      -0.00425478       0.01272224      -0.19709364
C       -1.84135123       2.53924929       0.87327478      -0.03749532       0.01698688      -0.00521666       0.03251633
C       -1.39326389       3.79573267       1.29195631      -0.02659646       0.00263629       0.00381243      -0.08191119
C       -0.00301823       3.63457759       1.38824268      -0.01114274      -0.00906640       0.01414198       0.02600733
C        1.02768765       4.60922703       1.81200138       0.00378992       0.00967183       0.00704900       0.48388768
F        0.50292082       5.76645133       2.25039543      -0.02286340       0.02026139      -0.02981347      -0.21575591
F        1.88419506       4.93642854       0.82108305      -0.00007910       0.02916805       0.00731737      -0.21639974
F        1.79940457       4.14889378       2.81758901       0.02159318      -0.00490200       0.01112180      -0.21506938
N        0.36351625       2.39913332       1.05276417       0.00978647      -0.01433377       0.01715150      -0.22591197
N       -0.73477280       1.75530621       0.71614517       0.02435715      -0.03591820      -0.00024794      -0.04453674
H       -2.35369763      -2.33940546       3.36940702       0.00957532      -0.00044447      -0.00869861       0.07216958
H       -2.73481207      -0.67496885       2.89721707      -0.02667494       0.00630464      -0.01561169       0.08840326
H       -2.25866913      -1.03751298       4.57240077       0.03105914       0.02747251       0.00355943       0.07283601
H        0.25372921      -1.48831919       5.02284062      -0.02582088      -0.00340674      -0.02287446       0.06173199
H        2.50112706      -0.97114122       3.54582700      -0.00347635       0.01274985       0.00889246       0.06752821
H       -3.43835083      -0.91339946      -2.79618272      -0.00207118       0.00345584       0.02696887       0.07740102
H       -3.57464138       0.83004575      -2.51316099       0.00163233      -0.00634784       0.00025042       0.07649091
H       -3.48252290       0.20272267      -4.17218744       0.03979233       0.02256992       0.00818827       0.06811403
H       -1.31006235       0.46711766      -5.20500641       0.01707595       0.00370841       0.01400985       0.05634243
H        1.30011187       0.48825654      -4.35596816      -0.02204532       0.01797561      -0.00060220       0.06114588
H        3.09820671       0.73782118      -2.61578806      -0.01754885       0.01347207       0.01474420       0.03772461
H        5.49341531       1.25010609       1.37281300       0.00127110      -0.01111860       0.00661706       0.04149773
H        6.88894211       1.03863736       0.32965664      -0.02554499      -0.01662195      -0.00920518       0.03955491
H        5.92903522      -0.36772275       0.78553962      -0.00243729       0.01161878      -0.01845601       0.03569897
H        5.73808746      -0.83121868      -1.79544724      -0.02338912       0.00726323       0.03545799       0.03558500
H        6.73213171       0.61431243      -1.98413252      -0.02421362      -0.00862845      -0.00734258       0.04011702
H        5.20948075       0.47788051      -2.85036816       0.00826445      -0.00272257       0.01631995       0.03464765
H        4.35016020       2.63447370      -1.87223978       0.00206572       0.01955357      -0.01813003       0.03666924
H        4.37181075       2.89999067      -0.13518661      -0.02969862       0.01318933       0.02268791       0.04658042
H        5.88670992       2.87140880      -1.03747329       0.02958167      -0.01456593      -0.01693260       0.04126534
H        3.73721198      -0.03911897       1.56096227      -0.00457634       0.02119131      -0.01567965       0.04895541
H        0.09111528      -2.98906972      -0.15729432       0.04167386       0.00114148       0.02069706       0.06446314
H       -3.20012272      -5.70118436      -0.26070276       0.01192691       0.01318771      -0.03809901       0.05478383
H       -4.74572896      -3.76572499      -0.32372528       0.00504771       0.01551020       0.03390725       0.05975152
H       -6.29733433       0.01697390      -0.29270340       0.02322076       0.01564087       0.00331969       0.03872094
H       -6.42420306       2.48935917       0.16767338       0.00460814      -0.01143360      -0.03013602       0.02887080
H       -4.30823729       3.70310852       0.70767819      -0.01765421      -0.01909398       0.01631432       0.03412827
H       -1.95963194       4.67458110       1.51819254      -0.01358180       0.00113651      -0.00831250       0.02416292
