91
Properties=species:S:1:pos:R:3:forces:R:3:charge:R:1 energy=-4555.248889829894 free_energy=-4555.248889829894 dipole="-0.6906317624299968 0.344881313016255 0.679387962494084" pbc="F F F"
C        5.54821979       1.74620126       3.34231960      -0.00646896      -0.01799443      -0.00748666      -0.11184020
C        5.35346817       0.45819569       2.53968583      -0.00683132      -0.01606236      -0.00283662       0.02697192
C        5.48253288      -0.73693008       3.49830341      -0.01337792      -0.00059974      -0.00151116      -0.11239526
C        6.46192703       0.38598557       1.47900179      -0.00886673      -0.00483374       0.00456344      -0.10933971
C        3.99743068       0.40162831       1.84982302      -0.00517632       0.00797523      -0.00219423       0.01307368
C        3.67757053      -0.73980640       1.11625187       0.00620491       0.00335069      -0.01386760      -0.05563301
C        2.45599729      -0.82938911       0.46388521      -0.01692321       0.00809849       0.00890326       0.05118543
C        1.50799596       0.18193147       0.54891793      -0.02864472       0.01381708      -0.02549607      -0.04359576
C        1.83415528       1.31452042       1.29203335      -0.02074040      -0.00323035      -0.00431095       0.05316709
C        3.07072219       1.43800698       1.92170755      -0.01945675       0.00381796      -0.02272871      -0.05866625
N        0.80102877       2.24945259       1.28856470       0.01259581      -0.00531046       0.00586488       0.02364945
C        0.48526856       3.28417655       2.12850455      -0.00430609      -0.02267504       0.00402891      -0.01461875
C       -0.69603525       3.79169819       1.70671832       0.02899825      -0.02703302      -0.00114548      -0.01499765
N       -1.08715979       3.07440668       0.59561432       0.01497281       0.02324829      -0.01699095       0.01183128
C       -2.11310799       3.45012191      -0.28277687      -0.02014967      -0.00342325       0.00599046       0.05816010
C       -1.91416515       3.29786445      -1.65420794      -0.00007900       0.00426783       0.00875011      -0.04170273
C       -2.88941015       3.70172991      -2.54324855       0.00582437      -0.00106107       0.00251431      -0.02642810
C       -4.06568367       4.26988514      -2.08029447      -0.00764711      -0.00604626       0.00839447      -0.03498077
C       -4.26931253       4.41078923      -0.71763447      -0.00164288       0.00909532      -0.00794590      -0.02972657
C       -3.30197455       4.00404148       0.18343397      -0.01369551       0.01573857       0.00144992      -0.04562420
C       -0.16959961       2.09686891       0.33024326       0.00821208       0.00137722       0.01828877      -0.02683269
Ir      -0.44000164      -0.07198387      -0.16146508      -0.00492534      -0.02134353       0.02221708       0.01618787
C        0.70363047      -1.89543967      -0.67815672      -0.02546844      -0.01105815      -0.00465963       0.00125297
N        0.56029547      -2.92645389      -1.53536617      -0.00175663      -0.00168276      -0.01759738       0.03497573
C       -0.60468836      -3.20724500      -2.27098428       0.00462268       0.01406668       0.01641670       0.06261447
C       -1.85651986      -2.95614038      -1.72180753       0.00904943      -0.00816577       0.01248923      -0.03464959
C       -2.99311990      -3.17447856      -2.47915690       0.00769811       0.02169606       0.01950828      -0.02437653
C       -2.88712627      -3.64904711      -3.77643765      -0.00784872       0.01719464       0.02525259      -0.02720209
C       -1.63934805      -3.91358079      -4.31581649       0.00006579      -0.00680267       0.00927505      -0.02208701
C       -0.49750245      -3.69183618      -3.56970199       0.00459113      -0.00106273       0.01847112      -0.03787925
C        1.75427029      -3.59144355      -1.66705136       0.00001795      -0.02327337       0.01703080      -0.01137978
C        2.65958801      -2.95299969      -0.88647258       0.00428027      -0.00735142      -0.01363956      -0.01041278
N        2.00347993      -1.90668176      -0.30609981      -0.02479957       0.00307966       0.00415589       0.04312629
C       -0.88697291      -0.49636726       1.81593163      -0.00977236      -0.00871185       0.01555898      -0.07130118
C       -0.05658082      -1.25783685       2.64118263       0.01946467      -0.00851314       0.00325660      -0.03145180
C       -0.33237294      -1.50582424       3.97808967       0.01694658       0.02304347      -0.00824112      -0.04033567
C        0.63379082      -2.36501222       4.73313336      -0.02130589       0.00908908       0.01576844       0.48364925
F        0.79819345      -3.57479075       4.15711494       0.00642697       0.01702212       0.00503240      -0.21562089
F        0.26798007      -2.60269831       6.00036740       0.01053389       0.00654341       0.02371247      -0.20730052
F        1.87257969      -1.82877669       4.79416888      -0.02719377       0.01054528       0.00190627      -0.21663174
C       -1.46095969      -0.96259992       4.57664889       0.00031363      -0.01457100      -0.00742524      -0.03155806
C       -2.32620728      -0.24204472       3.78528274       0.00973019       0.02498879      -0.00378387      -0.04972106
C       -2.06459338      -0.04174200       2.42654787      -0.00160425       0.00336701       0.01666222       0.14190408
O       -3.09452561       0.63996286       1.80654369      -0.01410580      -0.02817476       0.00460393      -0.24551867
C       -3.40284692       0.59641552       0.49581861       0.00748908      -0.01985002      -0.00300085       0.22174943
C       -4.72440051       0.89692407       0.19029115      -0.00711545       0.01501433      -0.01646921      -0.07371944
C       -5.12351548       0.90666821      -1.14106392      -0.01354742       0.03107335       0.00495498      -0.02480844
C       -4.18530993       0.64155690      -2.11972759      -0.01129850      -0.00410151      -0.00760484      -0.05271331
C       -2.87595626       0.35822067      -1.75581258      -0.00664329       0.00385507      -0.00390941       0.07419710
N       -2.49579551       0.30269806      -0.44126369       0.00675521      -0.00964366      -0.00529114      -0.15133823
C       -1.82834254       0.10325750      -2.69708108       0.01067530      -0.00155842       0.00322276       0.03188671
C       -1.84212437      -0.23652651      -4.05201480       0.02990290      -0.00842166      -0.00336035      -0.07892477
C       -0.49634549      -0.45472672      -4.33751894       0.02412244      -0.00440779       0.00389555       0.01475072
C        0.09431145      -0.88176274      -5.62499796       0.00533178      -0.01758602       0.02139196       0.48218127
F        1.22557473      -1.59306874      -5.48145648      -0.00098376      -0.00555864      -0.00161658      -0.21117074
F        0.39939811       0.14184732      -6.44965159       0.01138882       0.01561885      -0.01960784      -0.21698017
F       -0.74732158      -1.67067317      -6.33084874      -0.00587713       0.01888857      -0.01394394      -0.22510226
N        0.26498765      -0.24055721      -3.25483162       0.00794372       0.01271787      -0.00428195      -0.22228593
N       -0.53474997       0.10002783      -2.27286756       0.00471034      -0.01059251       0.00678198      -0.06449817
H        5.50393718       2.61797642       2.69368763      -0.00998676       0.00930119       0.01888951       0.03767736
H        6.52852682       1.73125604       3.81386156      -0.01501863       0.01207714       0.01840856       0.04095600
H        4.79553729       1.83310390       4.12215374       0.01917953       0.01034173       0.00589755       0.03942943
H        4.60865853      -0.80913453       4.14200784       0.00464893       0.02926885      -0.00220129       0.04573874
H        6.36605947      -0.62057756       4.12306571      -0.01960031      -0.00251121      -0.02145800       0.04188258
H        5.57973699      -1.67272340       2.95399155      -0.01746852       0.01941413       0.01151136       0.03814403
H        7.43707630       0.42813837       1.95845249       0.00928808       0.01882578       0.00354887       0.04229960
H        6.40714680      -0.53744123       0.91007015      -0.01326379       0.00106888      -0.01836841       0.03702203
H        6.37865665       1.21922160       0.78500000      -0.00328393       0.00258049       0.00484021       0.03755648
H        4.37357572      -1.56025971       1.06335959      -0.00181137      -0.02638173      -0.02559087       0.04688102
H        3.29231592       2.34259287       2.46263919      -0.00814640      -0.01079265      -0.00230929       0.05163198
H        1.09692841       3.56238731       2.96201445      -0.00216806       0.00345504      -0.01665289       0.05488973
H       -1.26337609       4.61770875       2.08194325      -0.00439556       0.01702796      -0.00672682       0.05212367
H       -0.98736042       2.87129502      -2.00314158       0.01768709      -0.01254677      -0.00091725       0.06174319
H       -2.72594537       3.58029496      -3.60319940       0.00984086       0.00714089      -0.00096382       0.04248257
H       -4.81811694       4.60367748      -2.77875435      -0.00762945      -0.02293674       0.01589020       0.03729150
H       -5.19042361       4.84300815      -0.35473607       0.01907456      -0.00845503       0.01946914       0.03697912
H       -3.48050288       4.10379841       1.24379538       0.04249982      -0.01044378       0.00872599       0.03705368
H       -1.92721676      -2.59751819      -0.70348457      -0.01766801      -0.01463974      -0.01170548       0.05401038
H       -3.96373685      -2.96733240      -2.05234143       0.00523606      -0.00085349      -0.01353973       0.03708759
H       -3.77474867      -3.80682741      -4.36951176      -0.00494209      -0.00739073       0.01023487       0.04382585
H       -1.54903774      -4.27465965      -5.32790128      -0.01548139       0.00395288      -0.01494819       0.05390699
H        0.47698618      -3.85832511      -4.00100885      -0.00791819       0.00924801      -0.03808888       0.05350118
H        1.85438259      -4.47573877      -2.26083569       0.02520079       0.01074104      -0.02103699       0.06299055
H        3.69679574      -3.15447909      -0.72161064       0.01687536      -0.01184948      -0.00936376       0.06424131
H        0.85135369      -1.68166911       2.24217279       0.02028411      -0.00878135      -0.00674385       0.05391026
H       -1.66405919      -1.11543506       5.62466573      -0.00476641      -0.02096162      -0.00499537       0.05744111
H       -3.23388860       0.17423909       4.19383782      -0.00066750       0.00289534       0.00327315       0.05730494
H       -5.40769266       1.11145895       0.99422691       0.01333254       0.01115413       0.00294409       0.05214225
H       -6.14663726       1.12978572      -1.39994857       0.01597019      -0.00820370       0.00745436       0.04353141
H       -4.44831441       0.66441029      -3.16380754       0.01734747      -0.01256959      -0.01494190       0.04671008
H       -2.67733764      -0.34885170      -4.71097877      -0.00286524       0.00293436       0.00009839       0.01644828
