77
Properties=species:S:1:pos:R:3:forces:R:3:charge:R:1 energy=-3916.899852025587 free_energy=-3916.899852025587 dipole="0.2436558767354192 0.2972952633665154 -0.6150728236272744" pbc="F F F"
C       -2.61563767       0.87544243       3.10390566       0.01174108      -0.01423927      -0.00909739      -0.06354751
N       -1.18912209       0.73200402       3.00219329       0.00131827       0.02776682       0.00468726       0.03476023
C       -0.29873353       0.89657757       4.02697865       0.00103941      -0.00082550      -0.00745864      -0.02080851
C        0.95012318       0.74706424       3.50995730       0.00595098      -0.01284001       0.00077365      -0.01531729
N        0.79673928       0.50189970       2.17621640      -0.01024343       0.01132730       0.00487735       0.04643420
C       -0.52722356       0.47917608       1.86152107      -0.01828032       0.00323630       0.00685032       0.01381277
Ir      -0.90714939       0.06173187      -0.15227161       0.01816952       0.02028152      -0.01910615       0.02712721
C       -0.40551035       0.15964654      -2.18509921      -0.01025145       0.00551021      -0.02207676      -0.00289836
N       -0.95725591       0.14629417      -3.41981592      -0.01255597      -0.00246722      -0.02317531       0.02712481
C       -2.36524650       0.19873566      -3.70535090       0.00584192      -0.01119039       0.01404598      -0.05665717
C        0.02209761       0.08069972      -4.36744680      -0.01271844      -0.00390711      -0.00674959      -0.01803188
C        1.22061454       0.06564378      -3.72439676       0.01193409      -0.00453583       0.00618374      -0.01676349
N        0.94727805       0.12300263      -2.38928586       0.00742277      -0.01282712       0.00651976       0.03296368
C        1.77779180       0.15891671      -1.26462463      -0.00560581       0.02298523       0.01814173       0.04376359
C        3.14488209      -0.10596824      -1.21429082       0.00764386      -0.01672979      -0.00471882      -0.06095953
C        3.78315882      -0.19439935       0.02098766       0.02977502       0.03112615       0.00199553       0.01473828
C        5.24848780      -0.59416700       0.11983294       0.01665141      -0.03499462      -0.00127423       0.02671025
C        5.81956215      -1.05315071      -1.22529040       0.01437688      -0.00098542      -0.00877111      -0.10944112
C        5.39250724      -1.76323299       1.10539620       0.00105407       0.00155044       0.01287773      -0.11040645
C        6.06413126       0.61075180       0.60685238      -0.01813660      -0.02977656      -0.00889622      -0.10749839
C        3.07094328       0.05437551       1.19474584      -0.01393082       0.00435637      -0.01476065      -0.05318516
C        1.70805933       0.34056811       1.12457099      -0.02130328       0.01354686      -0.00156533       0.05216750
C        1.06358322       0.39613995      -0.10154333      -0.03355663      -0.01420490      -0.00188905      -0.05935764
C       -1.83554829       1.91270521      -0.25473723       0.01162024      -0.01408540      -0.01265785      -0.05580822
C       -1.16431173       3.09748662       0.06610997      -0.00411995      -0.01942897       0.00134012      -0.03527748
C       -1.80021517       4.31873328       0.20424449      -0.00521602      -0.01424851       0.01313720      -0.03891292
C       -3.17408624       4.38026359       0.02065987      -0.01321253       0.03547317      -0.02215698      -0.03455071
C       -3.88956356       5.67828155       0.23239402      -0.01004601       0.02571470       0.00088259       0.48461102
F       -5.14968354       5.67779844      -0.22406705      -0.00714234       0.01164434      -0.00269018      -0.20666080
F       -3.27178549       6.71444053      -0.36225800       0.00621895       0.01651590       0.00874688      -0.20995100
F       -3.96962084       6.00245872       1.54246934       0.00545135       0.00925982      -0.00064521      -0.21621020
C       -3.87682426       3.24460135      -0.32801595      -0.00855913       0.02555635      -0.01233408      -0.05330561
C       -3.21808660       2.02208731      -0.48070287       0.00392337       0.02017915       0.01174910       0.14068948
O       -4.08913732       1.04757685      -0.91174597       0.01129041      -0.00299697       0.02087104      -0.25104092
C       -3.95188769      -0.29863564      -0.80526703      -0.04024334       0.00043226       0.02542188       0.21231324
C       -5.04190311      -1.03949265      -1.22141072      -0.00887916       0.00294884       0.00210036      -0.09085615
C       -4.99545550      -2.44244427      -1.09989508       0.00635780      -0.02094743       0.00747817      -0.04367375
C       -3.85263622      -3.02764267      -0.60086855       0.00292379       0.00643040       0.02020206      -0.05154559
C       -2.77096736      -2.23636315      -0.22878663      -0.00044357      -0.01115375       0.00508027       0.04052485
N       -2.83705474      -0.84110756      -0.31181098      -0.02015933      -0.02522116      -0.01054897      -0.19637911
C       -1.51843555      -2.72886797       0.24200968      -0.01632362      -0.02812434      -0.00296583       0.03313840
C       -1.03042154      -3.97336306       0.64861827      -0.00887156      -0.01405509       0.01345379      -0.08246286
C        0.28508336      -3.69570474       1.04832230       0.00329420      -0.01684367      -0.01032785       0.02692420
C        1.29356065      -4.62626901       1.60326712       0.02947776      -0.01426278      -0.00254210       0.48370018
F        2.40368656      -4.71982351       0.84265685       0.04359158       0.01437016      -0.00941431      -0.21618502
F        0.82816762      -5.88121791       1.72839834      -0.03327937      -0.00649693       0.00804292      -0.21603584
F        1.72421777      -4.26415500       2.82971067       0.00920838      -0.00847484       0.00452781      -0.21581208
N        0.57899111      -2.40703236       0.89114558      -0.02153122      -0.01215846      -0.00950111      -0.22921213
N       -0.49279518      -1.83517649       0.37471676      -0.01758489      -0.00159234       0.00864552      -0.04883648
H       -2.90566599       1.92071130       2.96452013       0.02355135      -0.02609153       0.00638916       0.07221285
H       -3.08374575       0.27909189       2.32181000      -0.02535980      -0.00150630       0.00952004       0.08783447
H       -2.96203679       0.53735788       4.07993323       0.02771433      -0.01585296      -0.01538412       0.07409504
H       -0.61604374       1.09458859       5.03071601       0.02098004       0.00268959      -0.01678375       0.06194369
H        1.90445700       0.80922203       3.98951965       0.00897580      -0.02472004      -0.00752112       0.06634173
H       -2.51736253       0.24485607      -4.78274006       0.02144357       0.00382412       0.02799196       0.06810367
H       -2.87101527      -0.68675883      -3.31404550       0.00469047       0.00260101       0.00406551       0.07433089
H       -2.81058373       1.08069813      -3.24216988       0.01126185      -0.01308066      -0.00352462       0.07953672
H       -0.20144508       0.05035243      -5.41446054       0.01897987       0.00163860       0.00438728       0.05600925
H        2.21554803       0.02061053      -4.11483531      -0.00252564       0.00057262      -0.01419040       0.06094335
H        3.67470864      -0.30148943      -2.12938385       0.00716242      -0.00869929      -0.01170246       0.04336751
H        6.85083358      -1.37278959      -1.09187885       0.00276594      -0.00040408       0.01000202       0.03912245
H        5.25401654      -1.89656169      -1.61462718       0.01000962       0.00517414      -0.00013927       0.04041682
H        5.81660197      -0.24682759      -1.95494939       0.01543546       0.01015375      -0.00289747       0.03323997
H        4.71257117      -2.56837742       0.83488906       0.02930223       0.00981018       0.00276602       0.04818167
H        5.17242634      -1.46107182       2.12494479      -0.00853772       0.00024540      -0.00295057       0.03782064
H        6.41231988      -2.14297882       1.08581165      -0.02566831      -0.00507074      -0.00969845       0.03960833
H        7.12207997       0.36172355       0.62544875       0.02230313       0.00117110       0.02483690       0.04138915
H        5.76199304       0.90751969       1.60659141      -0.01649410       0.02845502       0.02222676       0.03627779
H        5.91943486       1.45531791      -0.06232003       0.00612166       0.03559488      -0.00543651       0.03363308
H        3.55086383      -0.04221347       2.15408318      -0.00957708       0.04056340       0.00736027       0.04308658
H       -0.09402367       3.06728578       0.21626613       0.00164154      -0.02676163       0.00016164       0.05829813
H       -1.24579953       5.20742303       0.46241925       0.00499315      -0.00460452      -0.00999235       0.05365444
H       -4.94215929       3.28178346      -0.49060311      -0.01790239      -0.02273749      -0.01992124       0.07007476
H       -5.90705690      -0.53816174      -1.61904839       0.01036182       0.03332918       0.03392403       0.03909406
H       -5.84358680      -3.03785701      -1.39425074      -0.00584768       0.00562677      -0.01937775       0.02952950
H       -3.77003138      -4.09915159      -0.50468771       0.01068836       0.02043520      -0.00091407       0.03414078
H       -1.52466620      -4.92119290       0.68414796      -0.04055215       0.00704639      -0.01650644       0.02379811
