75
Properties=species:S:1:pos:R:3:forces:R:3:charge:R:1 energy=-3928.9405216527366 free_energy=-3928.9405216527366 dipole="1.202093693063054 -0.9849614289808442 -0.5694133101968456" pbc="F F F"
C       -0.19103560       1.73564489      -3.41673576      -0.00866885       0.00459568       0.00933904      -0.06742743
N       -1.42518114       1.90882129      -2.70166776      -0.00580816       0.00421421       0.01827665       0.04026149
C       -2.44488900       2.73987597      -3.08019257      -0.01237888      -0.00079850       0.00196517      -0.01978661
C       -3.45720319       2.57441176      -2.19084024      -0.00289608       0.01247907       0.01338366      -0.01368889
N       -3.03721434       1.63663655      -1.29122392       0.01440087       0.02242928       0.00850665       0.04025972
C       -1.76995443       1.22985867      -1.59915530      -0.00954478      -0.00629523      -0.00614707       0.00560794
Ir      -1.01149677      -0.15321157      -0.26026333      -0.03834950      -0.01450333       0.00273950       0.01754516
C       -1.11673664      -1.58771798       1.28444477      -0.01881870      -0.00800001      -0.00493987      -0.01012798
N       -0.40983840      -2.54892846       1.89796060      -0.00073947       0.02019521       0.01520950       0.03476206
C        0.91802473      -2.96653205       1.54816479       0.01100858       0.00259153      -0.00538007      -0.06358245
C       -1.13497771      -3.09787621       2.91994261      -0.00858776       0.00971304       0.02265148      -0.01974412
C       -2.33856982      -2.47060184       2.94754374       0.00142915       0.01185593      -0.01003792      -0.01314416
N       -2.31798289      -1.55248294       1.93714824       0.00276302       0.00463458      -0.00457560       0.03209465
C       -3.29147323      -0.64802401       1.49171242       0.01652236       0.00675496      -0.00188007       0.05701266
C       -4.48975698      -0.32120057       2.11964522       0.02224790      -0.00007629      -0.00511195      -0.04890470
C       -5.25187078       0.70055193       1.55969360       0.02846156       0.01089839      -0.00789373      -0.02555895
C       -6.52168945       1.13266613       2.23321895      -0.00756510       0.01275789      -0.00968298       0.48632589
F       -7.59671253       0.99927238       1.42884832      -0.01249344      -0.02773704      -0.01216617      -0.21329857
F       -6.49681682       2.42816891       2.58938603      -0.00047025       0.01688194      -0.00188364      -0.20562014
F       -6.80054200       0.44155464       3.34735131      -0.01200017      -0.01853731      -0.02227454      -0.20657271
C       -4.86793832       1.40056735       0.41694751       0.02228198       0.00765239      -0.01790403      -0.04353838
C       -3.66885504       1.04117069      -0.19314919       0.01050763      -0.00689392      -0.02352391       0.06125893
C       -2.90564809      -0.00361843       0.32108182       0.01337974       0.00557509      -0.00301090      -0.06289096
C       -0.54381427      -1.46129960      -1.81096352      -0.02112898      -0.01003877       0.01372704      -0.03151080
C       -1.44244078      -2.09678317      -2.63698383      -0.00232936      -0.00358050       0.00818762      -0.05421983
C       -0.97685609      -3.00414829      -3.58913894      -0.00509585      -0.00307849       0.01712825       0.14921303
F       -1.88690988      -3.60738808      -4.39705553       0.03443611      -0.02129569       0.02257238      -0.23939683
C        0.37206397      -3.30025373      -3.73401460      -0.01764042       0.00137834       0.00864336      -0.05420734
C        1.28190873      -2.65468609      -2.93240805       0.01223993      -0.00955305      -0.01541472      -0.04410085
C        0.85354463      -1.70269587      -1.98779786      -0.04611308       0.00154478       0.00090419      -0.02299940
C        1.73019429      -0.92298533      -1.18710806      -0.02192366      -0.00384414       0.02177471       0.12235886
N        3.04930905      -1.04543786      -1.10413028       0.00854134       0.01958570       0.00875026      -0.23933077
C        3.74379643      -0.26146362      -0.30904128       0.02395249      -0.00429533       0.01635727       0.09139114
C        5.20860682      -0.60603453      -0.14115259       0.03152037       0.00171659       0.00203665       0.02438062
C        5.74769046      -1.18511048      -1.45141251      -0.00428564      -0.00303820      -0.00528758      -0.11311061
C        5.26143350      -1.67149476       0.96768525       0.00623906      -0.00977624      -0.00234730      -0.10483880
C        6.06380897       0.59799894       0.26046597       0.00131196       0.01923848       0.00984953      -0.10888951
C        3.11323001       0.77026791       0.44006709       0.01523994      -0.01983063       0.01124153      -0.08841577
C        1.73629509       0.84535653       0.36934873       0.00237939       0.02331681      -0.04358784       0.08792297
N        1.04441296       0.00435502      -0.41812718       0.00235067      -0.00957590       0.00044577      -0.15861962
C        0.84751962       1.74479127       1.07644359      -0.02378488      -0.01681180       0.01040574       0.02906294
C        0.96822689       2.89991664       1.84439302      -0.00595668      -0.01064195       0.01334772      -0.07235263
C       -0.35862122       3.24674233       2.11909185      -0.00464331      -0.01974277       0.01593142       0.02062673
C       -0.87432946       4.39516759       2.90342881       0.01717895       0.00608347       0.00926231       0.48441578
F        0.05876420       5.35002849       3.07487929       0.04009981       0.01360295      -0.00766107      -0.21525874
F       -1.92704278       4.99800366       2.32639110       0.00659341      -0.01478971       0.00960573      -0.20710166
F       -1.27389323       4.05017685       4.14566941      -0.01725685      -0.00753220      -0.00792003      -0.21448736
N       -1.20324081       2.36421298       1.57210909      -0.01299975       0.00147589       0.00452490      -0.20903833
N       -0.47854875       1.47162243       0.96118695      -0.01141969       0.00406959      -0.00683155      -0.02763486
H        0.56378679       1.34993109      -2.73332375      -0.00578938       0.00485596      -0.01481099       0.09072069
H       -0.32227198       1.01454877      -4.22693501       0.00726168       0.01486697       0.00314410       0.07633161
H        0.13970933       2.68598855      -3.83424051      -0.01170328      -0.00101604       0.02102409       0.07388411
H       -2.37369136       3.37650556      -3.93761054      -0.00785250       0.00821495      -0.00514069       0.06352873
H       -4.41383254       3.04898887      -2.13501190      -0.02412550       0.00326087      -0.01382431       0.06775980
H        1.19209075      -2.52194941       0.59456173       0.02242814      -0.00210618      -0.02035119       0.09175389
H        1.63312918      -2.65068827       2.31006167       0.00749753       0.00506160       0.01301477       0.06871586
H        0.95263320      -4.05239740       1.45876989       0.01572669      -0.00999308       0.00192139       0.06983096
H       -0.74041209      -3.87582657       3.53915142      -0.01573204      -0.03090957       0.02164193       0.05921295
H       -3.18054442      -2.61400263       3.59200629       0.00330448      -0.00059442      -0.00193612       0.06295794
H       -4.81057451      -0.80645762       3.02714883      -0.00766044       0.00884409       0.00148018       0.05763847
H       -5.47599664       2.21584474       0.05920404       0.00063077       0.00611795      -0.00932568       0.05749977
H       -2.51011403      -1.93610838      -2.56636339       0.03328915       0.01630854       0.00936969       0.05510111
H        0.68833645      -4.01783325      -4.47493638      -0.03283329       0.01357562      -0.01271427       0.05357985
H        2.33989745      -2.84017185      -3.01909202       0.02759813      -0.00955106      -0.01419381       0.05186493
H        5.12257221      -2.01000437      -1.77822041       0.00696021      -0.00207357      -0.01142726       0.05656443
H        6.76850525      -1.53909328      -1.32476328      -0.02006366       0.00974442       0.02715632       0.03761395
H        5.73836603      -0.41706966      -2.22145633       0.00132151      -0.03236350      -0.02293586       0.03903408
H        6.27962662      -2.02774305       1.11111666      -0.01156792       0.03693575      -0.02034822       0.04396237
H        4.90392852      -1.25414628       1.90845991       0.00944133      -0.02273082      -0.02361890       0.03133539
H        4.62848492      -2.51635653       0.70218133       0.03990180       0.00228039      -0.00771711       0.03879539
H        7.11765984       0.33776835       0.17730613      -0.03204154       0.00124027       0.02411445       0.04168546
H        5.87494265       0.89795573       1.28851488      -0.01485788       0.01009247      -0.01121917       0.03639653
H        5.87194319       1.44637333      -0.39318567      -0.00713364      -0.01588043      -0.00731831       0.03663487
H        3.67207486       1.44770743       1.05857863      -0.00223070      -0.00073998       0.01117500       0.03748867
H        1.85300045       3.42036985       2.14639004       0.00604344      -0.00841604      -0.00846554       0.03500739
