76
Properties=species:S:1:pos:R:3:forces:R:3:charge:R:1 energy=-3876.6996708755682 free_energy=-3876.6996708755682 dipole="0.6700980594464981 -0.9876488439166567 0.594392978724615" pbc="F F F"
C        3.74186479      13.06841175       7.00244060      -0.02969587      -0.00115488       0.00060479      -0.12061189
C        5.03305370      13.08848316       6.19045692      -0.00256979      -0.01538489       0.02787225       0.04711806
C        6.23776314      13.00607858       7.12700915       0.02299856      -0.01778075       0.03126644      -0.10978866
N        5.03565829      11.98222480       5.25219674      -0.01589075       0.01836390      -0.01185855       0.00247762
C        6.14004112      11.52762921       4.57108169      -0.01769009       0.02670521       0.01023117      -0.01792497
C        5.72611058      10.49922184       3.79811688      -0.00206688      -0.00046713       0.03829090      -0.01356290
N        4.37165627      10.37092209       4.01526039      -0.01937457      -0.01585320      -0.02954605       0.01711708
C        3.93200363      11.28264254       4.91097100      -0.00934208       0.01290531       0.00570840      -0.15848879
Ir       5.20721108       7.31940812       5.11796531       0.02632905       0.01939171       0.00189917       0.01088534
C        4.21948685       5.54154992       4.43444422      -0.03526816      -0.02458272      -0.01338828       0.00788855
N        3.24207107       5.76468819       3.52624630      -0.01906403      -0.01405931      -0.03282062       0.03975509
C        2.65940306       4.58329384       3.16193051      -0.00488924      -0.02593346       0.01157153      -0.01710672
C        3.28646626       3.60943473       3.86812945       0.02255357       0.00668335       0.01308060      -0.01467643
N        4.24242922       4.21719922       4.64018138       0.02381777      -0.02987498       0.00566448       0.02576821
C        5.13922048       3.56421106       5.57304738       0.00888822      -0.03764450       0.03053273       0.03217536
C        5.84797500       2.38461249       4.91360126       0.00822345      -0.00155444      -0.00917779      -0.11928547
C        4.37021500       3.14200905       6.82329281      -0.01179627       0.00198429       0.01826161      -0.11926235
C        3.00489664       7.08301661       3.11185013      -0.00363593       0.00272091      -0.01115473       0.05253384
C        2.11691065       7.40099327       2.10175068      -0.01685322       0.00017214      -0.02076839      -0.04448793
C        1.99111824       8.73317093       1.72980134      -0.00656341       0.02582554       0.03434893      -0.03062568
C        1.05989210       9.11148124       0.61805695       0.00560984       0.00840325       0.01219830       0.48626482
F        0.84096083       8.10477848      -0.24524999      -0.01332789      -0.00185247       0.01632807      -0.21006149
F       -0.15517905       9.48366475       1.06876225      -0.00906881       0.00491385      -0.01784681      -0.21084756
F        1.52010594      10.13990574      -0.11076619      -0.02978289       0.01706493      -0.00472779      -0.20668163
C        2.71490785       9.72197016       2.38055786       0.00310446       0.02459323       0.01313169      -0.03792382
C        3.59606370       9.36906582       3.39401431       0.01989264      -0.03280414      -0.01790757       0.07169505
C        3.78528734       8.04025849       3.79253586      -0.01019841      -0.01373514       0.01730213      -0.07906502
C        4.33487889       7.25652379       6.98841912      -0.00636198      -0.01719745       0.00778158      -0.05434075
C        2.97391881       7.36423674       7.25673766       0.00006115      -0.00728499       0.01223759      -0.05777422
C        2.51770461       7.29466354       8.55964564       0.00821372      -0.00090136      -0.00415157       0.16375342
F        1.19495921       7.41752523       8.80365270       0.01655667       0.00029475      -0.00124129      -0.22440729
C        3.37214688       7.08599125       9.62939678       0.00402190       0.00005268       0.00810765      -0.07789483
C        4.71805022       6.95191536       9.35961922       0.00538360       0.00405023      -0.00582502       0.15821986
F        5.53161116       6.72413478      10.41821841      -0.00226552       0.01281947      -0.01323551      -0.22893473
C        5.23407526       7.03424999       8.06450935      -0.00978881       0.01116872       0.00909917      -0.02851509
C        6.63553984       6.91828573       7.68678563      -0.01735138      -0.00601808      -0.00796597       0.08058673
C        7.71775093       6.69460453       8.52861785      -0.00943545       0.00973312      -0.00502021      -0.04612015
C        8.99054115       6.60807680       7.98536191      -0.00501782      -0.00243919      -0.00992910      -0.02620005
C        9.16940552       6.73734905       6.61548653      -0.00633074       0.01050501      -0.01049230      -0.04567026
C        8.06275795       6.95900535       5.80576513      -0.00752062      -0.00320813      -0.01358675       0.08097165
N        6.81983840       7.04614379       6.34692816      -0.00724600      -0.00451869      -0.00896635      -0.10847450
C        8.04655132       7.08532572       4.35274283       0.00266092       0.00655760      -0.00801520      -0.02688676
C        9.15977805       7.11257078       3.51071567       0.01621877      -0.01041507       0.00219723       0.15970580
F       10.41327809       7.06389234       4.01725052       0.01102797      -0.01148835       0.02484153      -0.22676959
C        9.05051888       7.19429917       2.13783497       0.00969987      -0.00930914       0.00641907      -0.07772535
C        7.77817392       7.23294651       1.59403046       0.00973209      -0.00143167       0.00204085       0.16301744
F        7.64476559       7.28419728       0.25107723       0.01762622       0.01571822      -0.00219996      -0.22512116
C        6.64428273       7.22746852       2.38184113       0.00599376      -0.00606427       0.00692309      -0.06020643
C        6.75753697       7.18590239       3.76902667       0.00477585      -0.00508701       0.00331578      -0.05448830
H        3.69276809      12.15777101       7.59464024      -0.01599044       0.00552152      -0.02883538       0.05508267
H        2.87928850      13.09401234       6.34397681       0.00903067      -0.00764038      -0.00779372       0.06553539
H        3.70825249      13.92470752       7.67125041       0.01063887       0.00559091      -0.02523782       0.04561731
H        5.08365621      14.02634948       5.61701274       0.01183510       0.00267419       0.00026397       0.03541950
H        7.17621322      13.17221690       6.60358720      -0.01708486      -0.02421314      -0.00994981       0.03872734
H        6.26465208      12.02727373       7.60232540       0.03565746       0.00317336      -0.00201731       0.04558915
H        6.14986886      13.76205079       7.90268526      -0.00407218       0.01142238      -0.00619364       0.04643503
H        7.11529276      11.95585219       4.66656800       0.00808774       0.01948885       0.03212381       0.02991408
H        6.25374307       9.88688786       3.09774633       0.02326021      -0.01203489      -0.01681593       0.03630060
H        1.86375778       4.51398125       2.44993351      -0.00234516      -0.01789809       0.01419895       0.06840115
H        3.12788598       2.55050512       3.86832368      -0.00953982       0.03946455       0.00430862       0.06691093
H        5.87929957       4.32518958       5.84930035      -0.03239594       0.00108719      -0.01969287       0.07367298
H        6.27683707       2.68705799       3.96165968       0.02244370       0.00918627      -0.00318351       0.05283208
H        5.16653200       1.55432240       4.74197904      -0.00808245       0.02853163       0.01039546       0.05309369
H        6.65018529       2.03602915       5.55806301      -0.01470906       0.00207977      -0.00703371       0.05911403
H        3.83565589       3.99406918       7.23594445       0.00939372       0.01951070       0.01292094       0.05375466
H        5.06170481       2.77079959       7.57410385      -0.00387686      -0.00284545      -0.00849316       0.05942948
H        3.65332795       2.35619441       6.59495953       0.00446184       0.01487979      -0.01916093       0.05285633
H        1.54278647       6.64536086       1.59164802      -0.01053269      -0.03504016      -0.03351689       0.05678710
H        2.61225797      10.75647603       2.09152998      -0.01590136       0.01295979       0.00566414       0.06479637
H        2.25326063       7.51628019       6.46650456       0.01765298       0.01549477      -0.00346135       0.06194992
H        3.00120282       7.02855824      10.63958116       0.01223311      -0.01390621      -0.01152571       0.07197683
H        7.57673337       6.59002792       9.59014873       0.00762911       0.00037226      -0.00355237       0.06072398
H        9.84011636       6.43476667       8.62739509       0.00679929       0.00535111      -0.00386875       0.03864027
H       10.15636652       6.66416629       6.19321693      -0.00154610       0.00364122      -0.00498524       0.05989102
H        9.92606184       7.22108700       1.51140550       0.02260396      -0.01501732       0.01241274       0.07278432
H        5.68115145       7.26963115       1.89380196       0.00935572       0.00558338       0.01159855       0.05376065
