76
Properties=species:S:1:pos:R:3:forces:R:3:charge:R:1 energy=-3880.306800465434 free_energy=-3880.306800465434 dipole="0.9062268981821343 -0.37871213105720336 0.8204998604264854" pbc="F F F"
Ir       5.01607110       7.65357222       5.17008382       0.00121486       0.00204607       0.00618501      -0.07277163
N        6.56894295       7.02835216       6.28184860       0.03091106      -0.00938607       0.00665159      -0.08615741
N        5.64410378      10.81476165       5.87612435      -0.00243518       0.01240810       0.01093814       0.01116997
N        4.08341798      10.32923421       4.47867665       0.00980577       0.01126496      -0.00436806       0.03367810
N        3.28536799       5.90193334       3.62621295      -0.00080162      -0.01052078      -0.00751058       0.03158021
N        4.51560439       4.50479613       4.70543947       0.00369657      -0.01494037       0.00309359       0.01089796
C        4.08527950       7.40496173       7.00997319      -0.01159624      -0.00229399      -0.00021923      -0.06421176
C        2.75788392       7.60779495       7.37797907      -0.00931733      -0.00427820       0.00568454      -0.06288256
C        2.32799480       7.34831016       8.66399959       0.00535674       0.00007361       0.00953467       0.16384274
C        3.18344155       6.87657407       9.64319953       0.00412102      -0.00480954       0.00816910      -0.07955919
C        4.50211149       6.67435261       9.29317411       0.00017104       0.00990647      -0.01003172       0.15463990
C        4.98300544       6.92587694       8.00824633       0.00252708       0.00348447      -0.01009069      -0.03293324
C        6.36933792       6.72241305       7.57914594       0.00807187       0.00420652      -0.00090099       0.08251045
C        7.42769280       6.25077945       8.35377450      -0.01071658       0.00481833       0.01007988      -0.05119222
C        8.66547842       6.07321723       7.75835215      -0.00964681       0.00405770      -0.00619903      -0.02375425
C        8.83711336       6.34222893       6.41071237       0.00536927      -0.00168063       0.00051084      -0.05079452
C        7.75747340       6.83178702       5.67648466       0.02559467      -0.01089513      -0.00447095       0.08496919
C        7.74726424       7.18073082       4.25463692      -0.01655352       0.00952006       0.00638556      -0.03047492
C        8.84534160       7.08944888       3.40045039       0.01312837      -0.00126586       0.03110216       0.15538215
C        8.78946201       7.45042056       2.07025474       0.01553907      -0.01064921       0.02065269      -0.07922937
C        7.58110926       7.91885887       1.58799311       0.00877809      -0.00654846       0.01260667       0.16396369
C        6.46328402       8.01352099       2.39218372      -0.02979853       0.01778598      -0.01921918      -0.06346296
C        6.50927710       7.64882824       3.73444553      -0.03502553       0.01345408      -0.00416029      -0.06420132
C        5.03360814       9.76101360       5.28915161       0.00543175       0.02011672       0.00112934       0.00940118
C        5.08679916      11.99328504       5.44852741      -0.00450072      -0.00111456      -0.00863491      -0.01875680
C        4.10662690      11.69029165       4.56919942      -0.00212039       0.00795697      -0.00280846      -0.01710061
C        3.53955348       8.15737409       3.97051315       0.01169157       0.00447126      -0.00419096      -0.06106245
C        3.26291159       9.50024158       3.71161817       0.00883351       0.00461315       0.01065237       0.05439212
C        2.30545287       9.87407197       2.78530903       0.00134788      -0.01351862       0.01637666      -0.04529142
C        1.62731554       8.86134147       2.10559547      -0.01149714       0.00150846       0.00745183      -0.03868688
C        1.87852072       7.50643325       2.32767316       0.00315510       0.01320829       0.00718499      -0.04510886
C        2.84277115       7.17426977       3.26111474      -0.00006187       0.00329222      -0.00533188       0.05416436
C        4.31287990       5.82193327       4.52405673      -0.00684300      -0.02060106      -0.00529794       0.00761624
C        2.86522890       4.65438680       3.26234885      -0.00211026      -0.00542775       0.00304762      -0.01737626
C        3.63735374       3.77578819       3.94354486      -0.00069724       0.00615537       0.00481433      -0.01515686
C        6.70822901      10.81945732       6.86486708       0.00756220       0.00412397       0.00575554       0.04111437
C        6.19109896      10.26693582       8.19043354       0.00380455      -0.00490529       0.01254688      -0.11832074
C        7.95690919      10.08348415       6.37258540       0.00222834       0.00733651      -0.00695678      -0.11584957
C        0.55703024       9.24448722       1.13110028      -0.00606599       0.00588814      -0.00049720       0.48534101
C        5.47823967       3.92635959       5.61889136       0.01277265      -0.00758731       0.00881654       0.03657421
C        4.75424770       3.27884221       6.79702827      -0.00316047      -0.00825086       0.00730673      -0.11393966
C        6.40287089       2.95521022       4.89138565       0.00473979      -0.00897666      -0.00769134      -0.11442697
F        1.03240942       7.55457064       8.98967698       0.00581732       0.00135039      -0.00896884      -0.22900963
F        5.32039302       6.21052641      10.27200041      -0.01323049       0.00494997      -0.01099792      -0.23614462
F       10.04229458       6.63156097       3.84596279       0.02694268      -0.00191294       0.00322352      -0.23586845
F        7.49989232       8.28972887       0.29099122       0.01609291      -0.00971336       0.00085791      -0.22883508
F        0.77985814      10.43235310       0.54516819      -0.00909840       0.00180008      -0.00739909      -0.20981229
F        0.40050536       8.35501136       0.13708660       0.00966477      -0.00274897       0.00399857      -0.20968200
F       -0.65558732       9.34901612       1.72083998      -0.00466106       0.00641893      -0.00672848      -0.21616558
H        2.04250817       7.97285209       6.65649548      -0.01233188      -0.00276529       0.00272748       0.05267463
H        2.84053844       6.67325372      10.64370525      -0.00538991      -0.00086684       0.00648525       0.06681428
H        7.29402821       6.02745920       9.39667796       0.02212065      -0.01402973       0.00717363       0.06141393
H        9.50140726       5.71869492       8.34303293      -0.03191808      -0.01183782       0.00284237       0.03823576
H        9.79672139       6.17979137       5.95417369      -0.00383250       0.00463426      -0.01402997       0.06166021
H        9.66255658       7.36566769       1.44545035      -0.01089433       0.01472599      -0.03521471       0.06672002
H        5.54581167       8.38192259       1.95635861       0.00707731      -0.01065118      -0.00701996       0.04853828
H        5.42928128      12.94610011       5.79796577      -0.00905771      -0.01104239      -0.00573103       0.05235502
H        3.44107982      12.32637203       4.02471997       0.00371206       0.00074113      -0.01529259       0.06002157
H        2.08501230      10.90858908       2.56859888      -0.01250668      -0.03652106      -0.00191208       0.05450883
H        1.33869718       6.75924502       1.76604516      -0.00739745       0.02552265       0.00912861       0.05414315
H        2.06614299       4.48391373       2.57137395       0.00835073      -0.00098558      -0.00770184       0.05888725
H        3.62554519       2.70561372       3.94024487      -0.00185699       0.01898565       0.00206936       0.05548907
H        6.96484949      11.87570271       7.00736358      -0.00306938       0.00477828      -0.01016335       0.04814233
H        5.83207217       9.25123170       8.05609138       0.01741438       0.02268356       0.01026068       0.06425401
H        6.98739317      10.27079433       8.93032601      -0.01208498      -0.00499555      -0.01443193       0.05285620
H        5.36689682      10.87390365       8.55994170       0.01124783      -0.00258682       0.00151622       0.04445637
H        7.99183451       9.07366281       6.76392064      -0.01812190       0.00664537      -0.01944108       0.05769174
H        7.96697760      10.03421927       5.28653538       0.00760409       0.00551449       0.00160798       0.05283803
H        8.85361004      10.60323976       6.70013386      -0.00918146      -0.01223234       0.02059652       0.04796131
H        6.07880796       4.75466621       5.99509994      -0.00219064       0.01709085      -0.00849985       0.06517241
H        5.47949880       2.93264168       7.52779000      -0.00681758      -0.00843668       0.00956569       0.05370506
H        4.15397495       2.43181783       6.47403346       0.00577629      -0.01005411      -0.01564794       0.04837603
H        4.10099684       4.00666816       7.27366644       0.00323844       0.00009667       0.01083890       0.04927085
H        6.85168961       3.44639818       4.03100654       0.01111897      -0.01141363      -0.01019714       0.04893314
H        7.19769706       2.63862200       5.56101679      -0.00072737      -0.00395312      -0.00151918       0.05304763
H        5.86917743       2.07127158       4.55222994      -0.01471403      -0.00323794      -0.00009280       0.04881507
