85
Properties=species:S:1:pos:R:3:forces:R:3:charge:R:1 energy=-3952.33668475723 free_energy=-3952.33668475723 dipole="0.7987163531491449 0.013766368744346546 -0.6264610537055056" pbc="F F F"
Ir       5.02914297       7.60121141       5.13707645      -0.01198955      -0.00364707       0.01478619      -0.04384022
N        6.65594597       7.10639579       6.23633782      -0.00119317      -0.00644924       0.00580163      -0.10605007
N        4.19759752       7.38319751       7.07148370       0.01174850      -0.00640114       0.00522479      -0.05033492
N        3.02636555       7.48049819       7.63998680       0.01596400      -0.00144334      -0.00254963      -0.21458029
N        5.65045325      10.68840931       5.90613556       0.01208326      -0.00529266       0.00669525       0.01299076
N        4.10964328      10.28664298       4.45888390       0.00474464       0.00811176       0.00621885       0.03472438
N        3.25166029       5.87440290       3.59067101       0.00701226      -0.01273390       0.00552191       0.03499507
N        4.44289736       4.44734657       4.67360636       0.01688114       0.00238636       0.00674165       0.01440331
C        6.45976455       7.61716758       3.69276317      -0.00348189      -0.00158290      -0.00977096      -0.04383444
C        6.32970930       7.87666876       2.33064671       0.02160595      -0.00902234      -0.01374167      -0.06413760
C        7.42825963       7.83764117       1.49584708       0.02613829       0.00492978       0.00492916       0.16546610
C        8.69908529       7.54848575       1.96074278       0.00567827      -0.00850383       0.00021291      -0.07970882
C        8.83674778       7.29051354       3.30924424      -0.00767658       0.00742724       0.00330933       0.15789900
C        7.75989884       7.31295518       4.19376989      -0.00993903       0.00218001      -0.00505327      -0.03011676
C        7.85395516       7.04483747       5.62930866       0.00374875      -0.00157522       0.00399987       0.08504749
C        8.99030658       6.76272227       6.38451452       0.01124317      -0.00870417       0.00492690      -0.05123323
C        8.85725564       6.54824257       7.74958888      -0.00316908      -0.00603088       0.01318127      -0.02183292
C        7.61551486       6.61883531       8.35635544      -0.02276011       0.00541095      -0.01284256      -0.05142663
C        6.51099689       6.90909138       7.55721794      -0.02578873       0.00126524       0.00515437       0.07464299
C        5.14631244       7.05187576       7.99667084      -0.00951273      -0.00340250       0.01038896       0.02196720
C        4.51975704       6.93301605       9.23734353      -0.01392402       0.00772638       0.00116319      -0.07830442
C        3.18628139       7.21789977       8.94696515      -0.00733973       0.00128091      -0.00134541       0.01269695
C        2.04523555       7.22653391       9.89032223      -0.01007148       0.00107312      -0.01398571       0.48207484
C        5.03642136       9.68455628       5.25751589       0.00542693      -0.00258899       0.01147822       0.00426318
C        5.12341891      11.89540131       5.52392714       0.01150192      -0.01025764       0.01830188      -0.01684773
C        4.15595985      11.64064121       4.60982105       0.00391487       0.01229875       0.01688703      -0.01556832
C        3.54200596       8.12240322       3.94145285      -0.03716209       0.00675624      -0.01007349      -0.06080149
C        3.27693406       9.46312799       3.68635757      -0.00422422       0.01487849      -0.01335801       0.04881372
C        2.31619825       9.84070359       2.76634355       0.00191190       0.00275822      -0.02319978      -0.05207647
C        1.59730225       8.86454758       2.06919081      -0.04260127       0.00535404       0.02495084       0.00474729
C        1.85752708       7.51642536       2.31067867       0.00121602       0.01720429      -0.02437173      -0.05624812
C        2.82798420       7.16347822       3.23541456      -0.01689798      -0.01211815      -0.02542105       0.04807779
C        4.27693439       5.76669866       4.48338672       0.01192352       0.00061291       0.01622494       0.00509447
C        2.79766226       4.64016460       3.23256354       0.00129908      -0.01700859       0.01102418      -0.01593707
C        3.54484459       3.73981298       3.91654393       0.01397695      -0.00035045       0.02166654      -0.01696376
C        6.67474895      10.51686890       6.91629026       0.00428726       0.01412332       0.00681159       0.03913353
C        6.12154812      10.92090124       8.28209700      -0.00613170      -0.00805432      -0.00180270      -0.11300116
C        7.93322429      11.29920952       6.54842440      -0.00110409      -0.00235024      -0.00822780      -0.11441359
C        0.54602423       9.31976861       1.06472163      -0.01039741       0.00209360       0.01205432       0.02659467
C       -0.17598588       8.15443189       0.38135636       0.01205271       0.00221972       0.00025539      -0.10936061
C        1.22725548      10.15669369      -0.02814873      -0.00903404      -0.01149413       0.01126538      -0.10793278
C       -0.51037841      10.16268177       1.79405690      -0.00238983       0.00902321       0.00228094      -0.10802396
C        5.39159891       3.85882045       5.59643535      -0.00062147      -0.01200785       0.00203997       0.03904261
C        4.63781040       3.17963584       6.73865087      -0.00060306       0.00840952       0.00283268      -0.11360980
C        6.32505457       2.89609208       4.86581229      -0.00204562       0.00706479      -0.00326234      -0.11473293
F        7.26587185       8.09171041       0.17788087       0.01287272      -0.00415068       0.01352634      -0.22700005
F       10.08763294       7.00899323       3.75035003      -0.00819842       0.00046284      -0.02992389      -0.23143052
F        2.37987483       7.74257601      11.09522142       0.01262836      -0.01623187      -0.01756327      -0.22428397
F        1.57494143       5.98317967      10.15893921       0.01519238      -0.00274008       0.00344373      -0.22551195
F        0.99272796       7.93200266       9.46012367      -0.01368476       0.01443163       0.00495092      -0.20445234
H        5.36501844       8.11114026       1.90473105       0.02400242      -0.00389467       0.01591836       0.06133188
H        9.55248938       7.52167161       1.30368661      -0.01231590       0.00332348      -0.00617620       0.07024104
H        9.96398805       6.71120149       5.93216154       0.01401326      -0.00256023      -0.02021156       0.05923224
H        9.73350827       6.32822412       8.33983018       0.01806013      -0.00406366       0.01639977       0.03664390
H        7.49495864       6.46209823       9.41613949      -0.00551836      -0.00137987      -0.01790941       0.04010675
H        4.94391977       6.68817652      10.18992811      -0.00584189       0.00888729      -0.02860319       0.01775256
H        5.46433776      12.82727357       5.92475797      -0.00800598      -0.00367302      -0.01782003       0.05254722
H        3.51494453      12.31227908       4.07748468      -0.00048578       0.00224634       0.00682404       0.05558109
H        2.12979169      10.88676033       2.57809259      -0.00980598      -0.00946701       0.00636135       0.03669698
H        1.32047798       6.74958540       1.77781682      -0.00005672       0.00738069       0.00599648       0.04362116
H        1.99632744       4.48899028       2.53959813      -0.00529458      -0.00726916       0.00475817       0.05662545
H        3.49902075       2.67071670       3.92325607      -0.00208943       0.00918662      -0.01578291       0.05291488
H        6.91187995       9.44967965       6.92943016       0.00124952       0.02641108       0.00101882       0.06238318
H        5.87434995      11.98013038       8.30163064       0.00548341      -0.01068703       0.00789513       0.04806652
H        6.85343074      10.72104645       9.05996673       0.01164899      -0.00158783      -0.02401125       0.05124551
H        5.22214496      10.35003737       8.50090376      -0.00944005      -0.00438013       0.00626021       0.05375894
H        7.75009733      12.37087047       6.57122518       0.00410699      -0.00662505       0.00085745       0.04879702
H        8.26917763      11.02212538       5.55177446      -0.00466198      -0.00121858      -0.01226457       0.04771787
H        8.72871750      11.07301384       7.25339224      -0.02170014      -0.00412731       0.00738493       0.05200705
H       -0.69872858       7.53392125       1.10565981       0.01352169       0.01197660       0.00455653       0.03721176
H       -0.91372112       8.54887215      -0.31470562      -0.00025934      -0.00534039       0.00621396       0.03850627
H        0.51947361       7.54034953      -0.18565396       0.01017854      -0.01334616       0.00615910       0.03601991
H        1.70378983      11.04170935       0.38427320      -0.01021840      -0.00904697      -0.00603590       0.03599478
H        1.98802609       9.56312059      -0.53086892       0.00069876       0.01554181      -0.00413547       0.03659064
H        0.49413714      10.47633816      -0.76566208       0.00764646       0.00550526       0.00189129       0.03926268
H       -0.96340440       9.58475780       2.59648585       0.00467483      -0.00916606      -0.00460091       0.03813245
H       -0.07839936      11.05975887       2.22732420       0.01645096       0.00705691      -0.00030580       0.03620695
H       -1.29331465      10.46526610       1.10208199       0.00237136      -0.00231446      -0.00968861       0.03880796
H        5.97866813       4.69051812       5.99799123      -0.00608699      -0.01877565      -0.00809714       0.06330942
H        5.33522400       2.80059690       7.48047749       0.01685841       0.00946153      -0.01882058       0.05149583
H        3.97488895       3.89406213       7.22123045      -0.00460251       0.00252122       0.01086761       0.05478342
H        4.04175960       2.34893025       6.36719861       0.00741159       0.00162866       0.01542467       0.04825430
H        5.77904422       2.03683404       4.48339968       0.00721165       0.00425477       0.00334227       0.04888423
H        6.80868852       3.40228839       4.03334442      -0.00323385       0.00615280      -0.00563847       0.04792002
H        7.09475246       2.53789028       5.54416909      -0.01908189       0.01204704       0.01021404       0.05226971
