76
Properties=species:S:1:pos:R:3:forces:R:3:charge:R:1 energy=-3876.699670876317 free_energy=-3876.699670876317 dipole="0.6700980318699741 -0.9876487300764868 0.5943929818824817" pbc="F F F"
C        3.74186479      13.06841175       7.00244060      -0.02969592      -0.00115487       0.00060479      -0.12061189
C        5.03305370      13.08848316       6.19045692      -0.00256979      -0.01538491       0.02787224       0.04711806
C        6.23776314      13.00607858       7.12700915       0.02299861      -0.01778078       0.03126647      -0.10978866
N        5.03565829      11.98222480       5.25219674      -0.01589077       0.01836388      -0.01185852       0.00247762
C        6.14004113      11.52762922       4.57108169      -0.01769008       0.02670522       0.01023115      -0.01792497
C        5.72611058      10.49922184       3.79811688      -0.00206693      -0.00046714       0.03829093      -0.01356290
N        4.37165628      10.37092209       4.01526039      -0.01937465      -0.01585327      -0.02954606       0.01711708
C        3.93200363      11.28264254       4.91097099      -0.00934197       0.01290530       0.00570838      -0.15848876
Ir       5.20721108       7.31940812       5.11796531       0.02632906       0.01939163       0.00189915       0.01088533
C        4.21948685       5.54154992       4.43444423      -0.03526820      -0.02458273      -0.01338834       0.00788854
N        3.24207107       5.76468819       3.52624630      -0.01906407      -0.01405930      -0.03282065       0.03975509
C        2.65940306       4.58329384       3.16193051      -0.00488923      -0.02593347       0.01157154      -0.01710672
C        3.28646626       3.60943473       3.86812945       0.02255359       0.00668335       0.01308060      -0.01467643
N        4.24242922       4.21719922       4.64018138       0.02381776      -0.02987499       0.00566449       0.02576821
C        5.13922049       3.56421106       5.57304738       0.00888824      -0.03764450       0.03053277       0.03217536
C        5.84797500       2.38461249       4.91360126       0.00822344      -0.00155444      -0.00917779      -0.11928547
C        4.37021500       3.14200905       6.82329281      -0.01179628       0.00198428       0.01826162      -0.11926235
C        3.00489663       7.08301660       3.11185013      -0.00363590       0.00272097      -0.01115469       0.05253384
C        2.11691064       7.40099328       2.10175068      -0.01685318       0.00017214      -0.02076836      -0.04448793
C        1.99111823       8.73317093       1.72980134      -0.00656340       0.02582546       0.03434891      -0.03062568
C        1.05989210       9.11148125       0.61805695       0.00560984       0.00840324       0.01219831       0.48626482
F        0.84096083       8.10477849      -0.24524999      -0.01332788      -0.00185246       0.01632807      -0.21006149
F       -0.15517905       9.48366475       1.06876224      -0.00906880       0.00491387      -0.01784681      -0.21084756
F        1.52010595      10.13990574      -0.11076619      -0.02978291       0.01706492      -0.00472778      -0.20668163
C        2.71490786       9.72197016       2.38055786       0.00310443       0.02459325       0.01313167      -0.03792382
C        3.59606371       9.36906582       3.39401431       0.01989261      -0.03280415      -0.01790760       0.07169505
C        3.78528734       8.04025849       3.79253585      -0.01019833      -0.01373507       0.01730218      -0.07906502
C        4.33487889       7.25652378       6.98841912      -0.00636203      -0.01719740       0.00778157      -0.05434075
C        2.97391881       7.36423674       7.25673766       0.00006114      -0.00728499       0.01223759      -0.05777422
C        2.51770461       7.29466354       8.55964565       0.00821373      -0.00090137      -0.00415153       0.16375342
F        1.19495921       7.41752524       8.80365270       0.01655669       0.00029474      -0.00124129      -0.22440729
C        3.37214688       7.08599125       9.62939678       0.00402192       0.00005268       0.00810760      -0.07789483
C        4.71805022       6.95191536       9.35961922       0.00538354       0.00405022      -0.00582498       0.15821985
F        5.53161116       6.72413478      10.41821841      -0.00226551       0.01281947      -0.01323550      -0.22893473
C        5.23407526       7.03424999       8.06450935      -0.00978885       0.01116871       0.00909918      -0.02851509
C        6.63553984       6.91828573       7.68678563      -0.01735140      -0.00601809      -0.00796595       0.08058673
C        7.71775093       6.69460453       8.52861785      -0.00943544       0.00973312      -0.00502023      -0.04612015
C        8.99054115       6.60807681       7.98536191      -0.00501782      -0.00243919      -0.00992906      -0.02620005
C        9.16940551       6.73734905       6.61548653      -0.00633070       0.01050501      -0.01049232      -0.04567027
C        8.06275795       6.95900535       5.80576513      -0.00752065      -0.00320813      -0.01358681       0.08097165
N        6.81983840       7.04614379       6.34692816      -0.00724601      -0.00451865      -0.00896636      -0.10847450
C        8.04655132       7.08532572       4.35274283       0.00266093       0.00655760      -0.00801524      -0.02688676
C        9.15977805       7.11257079       3.51071567       0.01621877      -0.01041508       0.00219721       0.15970580
F       10.41327809       7.06389234       4.01725053       0.01102797      -0.01148835       0.02484152      -0.22676959
C        9.05051887       7.19429917       2.13783497       0.00969987      -0.00930914       0.00641905      -0.07772535
C        7.77817392       7.23294651       1.59403046       0.00973208      -0.00143168       0.00204087       0.16301744
F        7.64476559       7.28419729       0.25107723       0.01762623       0.01571822      -0.00219993      -0.22512116
C        6.64428272       7.22746852       2.38184113       0.00599378      -0.00606427       0.00692306      -0.06020643
C        6.75753697       7.18590238       3.76902667       0.00477582      -0.00508698       0.00331575      -0.05448830
H        3.69276809      12.15777101       7.59464024      -0.01599044       0.00552156      -0.02883539       0.05508267
H        2.87928850      13.09401233       6.34397681       0.00903070      -0.00764038      -0.00779369       0.06553539
H        3.70825248      13.92470753       7.67125041       0.01063887       0.00559087      -0.02523784       0.04561731
H        5.08365621      14.02634948       5.61701274       0.01183510       0.00267420       0.00026398       0.03541950
H        7.17621322      13.17221689       6.60358719      -0.01708487      -0.02421312      -0.00994979       0.03872734
H        6.26465208      12.02727373       7.60232541       0.03565742       0.00317342      -0.00201733       0.04558915
H        6.14986887      13.76205079       7.90268525      -0.00407218       0.01142233      -0.00619368       0.04643503
H        7.11529276      11.95585220       4.66656801       0.00808776       0.01948886       0.03212381       0.02991408
H        6.25374308       9.88688787       3.09774633       0.02326021      -0.01203489      -0.01681593       0.03630060
H        1.86375778       4.51398124       2.44993351      -0.00234514      -0.01789806       0.01419897       0.06840115
H        3.12788598       2.55050512       3.86832368      -0.00953983       0.03946456       0.00430862       0.06691093
H        5.87929957       4.32518958       5.84930035      -0.03239591       0.00108721      -0.01969287       0.07367298
H        6.27683708       2.68705799       3.96165968       0.02244368       0.00918626      -0.00318350       0.05283208
H        5.16653200       1.55432240       4.74197904      -0.00808242       0.02853164       0.01039545       0.05309369
H        6.65018530       2.03602916       5.55806302      -0.01470908       0.00207977      -0.00703373       0.05911403
H        3.83565589       3.99406917       7.23594445       0.00939373       0.01951070       0.01292092       0.05375466
H        5.06170481       2.77079959       7.57410385      -0.00387686      -0.00284544      -0.00849317       0.05942948
H        3.65332795       2.35619440       6.59495953       0.00446183       0.01487979      -0.01916093       0.05285633
H        1.54278647       6.64536086       1.59164802      -0.01053272      -0.03504015      -0.03351692       0.05678710
H        2.61225797      10.75647603       2.09152997      -0.01590134       0.01295978       0.00566415       0.06479637
H        2.25326063       7.51628018       6.46650456       0.01765300       0.01549476      -0.00346134       0.06194992
H        3.00120282       7.02855825      10.63958116       0.01223312      -0.01390620      -0.01152572       0.07197683
H        7.57673338       6.59002793       9.59014873       0.00762910       0.00037226      -0.00355234       0.06072398
H        9.84011636       6.43476667       8.62739508       0.00679933       0.00535110      -0.00386871       0.03864027
H       10.15636651       6.66416628       6.19321692      -0.00154610       0.00364122      -0.00498523       0.05989102
H        9.92606184       7.22108700       1.51140550       0.02260394      -0.01501732       0.01241276       0.07278432
H        5.68115144       7.26963115       1.89380196       0.00935575       0.00558338       0.01159856       0.05376065
