86
Properties=species:S:1:pos:R:3:forces:R:3:charge:R:1 energy=-4123.359539213531 free_energy=-4123.359539213531 dipole="-0.6390987747512288 -0.02195533740970973 -1.0180184245998332" pbc="F F F"
C       -2.87010152       3.31654840      -0.10616561       0.01951637       0.00522637       0.00195728      -0.04903565
N       -1.45656231       3.13873171       0.06407112       0.00886357      -0.00747329       0.02056195      -0.00094365
C       -0.78422246       1.97214806      -0.02916692       0.01018067      -0.00916286       0.00100499       0.01464175
Ir      -1.17852310      -0.01426757      -0.50546844       0.01635597      -0.04260494       0.00141789       0.02868209
C       -0.64673296      -2.01391486      -0.90259269      -0.00659653       0.01775919       0.01335052       0.00329796
N       -1.22657913      -3.16962679      -1.30871950      -0.00029251       0.03664001      -0.02049636      -0.00202528
C       -2.63702081      -3.38398955      -1.46137226      -0.00824102       0.01927115       0.00674367      -0.04842265
C       -0.26595936      -4.12040310      -1.55965467       0.01291358       0.02383028      -0.01791438       0.03490313
C       -0.36591702      -5.43511724      -1.99549752      -0.00734035       0.02036423       0.00434048      -0.05392710
C        0.81763029      -6.13002892      -2.18580472      -0.01093831      -0.00657240       0.01778300      -0.03607500
C        2.05075429      -5.52858870      -1.97480002       0.01137862      -0.00779005       0.01640967      -0.03726923
C        2.15901570      -4.21623343      -1.53831494       0.03762480      -0.00773727      -0.00544723      -0.05038214
C        0.98267816      -3.51802724      -1.30623392       0.03031864      -0.00462735       0.00496700       0.04122530
N        0.70924147      -2.23761025      -0.88790017      -0.00962638      -0.00132597      -0.00857528       0.00331243
C        1.51872723      -1.16738055      -0.47593668       0.00193163      -0.00227414      -0.03843120       0.06187803
C        2.80921575      -1.23560762       0.01409612      -0.02092203       0.01229337       0.02528757      -0.04834832
C        3.40411939      -0.10413325       0.58202604      -0.00071363      -0.00173143       0.01765705       0.01628882
C        4.74511479      -0.26624616       1.28173290       0.00663025      -0.01474626       0.01068232       0.02774176
C        5.80831272      -0.71013247       0.26780751      -0.00280664      -0.02159589      -0.00623878      -0.10687500
C        4.58292246      -1.32990900       2.38001315      -0.00118985      -0.00320444       0.00900120      -0.11163857
C        5.22245887       1.02596244       1.94984696       0.01078473      -0.01123075      -0.00523279      -0.11066124
C        2.71246928       1.10418168       0.59327744      -0.00597638       0.00099803      -0.01798915      -0.05219427
C        1.42829968       1.16978342       0.07740620      -0.01503125       0.00313007       0.01831426       0.06381259
C        0.81888544       0.03996448      -0.46779907       0.00187564       0.00182084      -0.00508383      -0.06084258
N        0.54482605       2.25561622       0.15137102       0.00887755       0.01650472       0.00809056       0.00859067
C        0.71495229       3.60625860       0.36101226      -0.00076702       0.01851867       0.00707398       0.04122719
C        1.82027184       4.42220059       0.56428241       0.00231001       0.00544451       0.00062055      -0.04777422
C        1.59264171       5.78109775       0.73515726       0.00379258       0.00305518      -0.00515921      -0.03630730
C        0.31477851       6.32454420       0.69550988       0.01560369      -0.01262641      -0.01727284      -0.03492478
C       -0.79595570       5.52730314       0.47056247       0.00234770       0.02279024      -0.02563651      -0.05252860
C       -0.57593866       4.16789411       0.30460912      -0.00458451      -0.00006009       0.01577487       0.03467265
C       -1.71277915       0.68280708      -2.35724910       0.00026052       0.01344891       0.00114853      -0.06199654
C       -0.75755360       1.23068510      -3.22458038      -0.00122154       0.00057047      -0.00352074      -0.05523310
C       -1.10923355       1.81131870      -4.42384367      -0.01030271      -0.01112431      -0.00683301       0.16072976
F       -0.13662463       2.30816817      -5.22093907       0.00555968       0.01390372      -0.01029478      -0.22844550
C       -2.43016074       1.91121327      -4.82994019      -0.00630029      -0.02753352      -0.01210443      -0.05213979
C       -3.39229187       1.37728200      -4.00455182       0.00222703      -0.00999748      -0.01020673      -0.05345511
C       -3.05060098       0.76947065      -2.78975817      -0.00230615      -0.00963216      -0.00695913       0.13437199
O       -4.17013717       0.28119026      -2.15260335       0.00548042       0.01685242       0.02878027      -0.24505371
C       -4.29619643      -0.14401826      -0.87469133      -0.01371931      -0.03567869      -0.01312903       0.21190669
C       -5.58742150      -0.46253331      -0.48812340       0.00461317       0.02302045       0.00587032      -0.08501787
C       -5.81293461      -0.88202472       0.82975261       0.00372803      -0.00186299       0.01074698      -0.03662664
C       -4.74251209      -0.94906774       1.69856946      -0.01034063      -0.01743301       0.01902257      -0.05214484
C       -3.46480737      -0.63082316       1.25773720      -0.00266862       0.01642607      -0.01623043       0.05567874
N       -3.24202931      -0.24111595      -0.05663555      -0.01759981       0.01318773      -0.00550547      -0.17956097
C       -2.30502157      -0.63435008       2.09630236       0.01847213      -0.00143512      -0.01296388       0.03067807
C       -2.10000859      -0.75764081       3.47632853       0.00936893       0.00159771      -0.00692615      -0.08066653
C       -0.72261725      -0.58185589       3.61831395      -0.00116950      -0.01090202      -0.00572968       0.01818012
C        0.08228152      -0.54776557       4.86173044       0.01306743       0.00146822      -0.00255259       0.48310503
F       -0.53467206      -1.14211792       5.90072717      -0.02261914      -0.00712080      -0.03609110      -0.21760224
F        0.35047057       0.71343134       5.27624872      -0.00870288       0.01156083       0.00039748      -0.22166500
F        1.28081720      -1.14582493       4.74356129      -0.00686412      -0.01396205      -0.01697153      -0.21091174
N       -0.14190156      -0.37947763       2.42876882      -0.02506200      -0.00248042      -0.00208552      -0.21589083
N       -1.09005364      -0.42198505       1.52706455       0.01340851       0.02028224       0.00108545      -0.04946648
H       -3.27431152       3.91419767       0.71275727       0.00315236      -0.02581426       0.00507804       0.06605208
H       -3.07123852       3.82870709      -1.05106487      -0.03319610      -0.02352163       0.00366890       0.06134496
H       -3.35592675       2.34265625      -0.11267997       0.00564468       0.03179776       0.00166477       0.07625032
H       -3.06612668      -3.82673371      -0.55855706       0.00591461      -0.00650413       0.00470333       0.06134715
H       -3.12533808      -2.43011540      -1.64879374      -0.02468007      -0.00287742      -0.00145432       0.07413827
H       -2.81747738      -4.05120706      -2.30419972      -0.00433157       0.02216301       0.00363128       0.06467331
H       -1.32055694      -5.89884298      -2.18321540      -0.01237021      -0.00771590       0.01567870       0.03365738
H        0.78121552      -7.15868866      -2.50899631      -0.01383320      -0.00182424      -0.02562303       0.03764112
H        2.94902000      -6.09793931      -2.15608149       0.01894820       0.00765134       0.00350048       0.03853839
H        3.12652753      -3.76263005      -1.41080955       0.01190180       0.01299426       0.02627037       0.03946443
H        3.32053414      -2.18366752       0.03916092       0.00217012       0.03149493       0.01921966       0.04747556
H        5.93129417       0.04730158      -0.50412570       0.00240468      -0.01865553       0.00320791       0.03514786
H        5.52923619      -1.64495315      -0.21091028       0.00803167       0.00930705      -0.01366465       0.03529919
H        6.76596846      -0.85786702       0.76417809      -0.03661024       0.02162626      -0.00233868       0.04132950
H        3.77287572      -1.05532070       3.05148371      -0.00127452       0.01371060       0.00122955       0.05097925
H        4.35284256      -2.30629425       1.96361596       0.02727690       0.00128002      -0.00547898       0.03731540
H        5.49928446      -1.41669607       2.96006802       0.00328709       0.01378707      -0.02041165       0.04137120
H        6.17373549       0.84381621       2.44541990       0.00538682       0.00300886      -0.00587082       0.04067357
H        5.37349593       1.81785368       1.21895769      -0.00585070      -0.00552282       0.00698071       0.03392998
H        4.51115719       1.35505567       2.70373713       0.01961634       0.00571868      -0.01152749       0.04379458
H        3.13101609       1.97297252       1.06847336       0.01407568      -0.02915667      -0.00282513       0.05598454
H        2.82544161       4.03615739       0.57822169      -0.01947684      -0.02137027       0.00005888       0.04312323
H        2.43535427       6.43607858       0.89714048      -0.00181886      -0.01944420       0.00374539       0.04060658
H        0.18380342       7.38804222       0.83014836       0.01279696      -0.03321230       0.00378366       0.03929319
H       -1.78690528       5.94761556       0.41390280      -0.00471498       0.00606719       0.01969746       0.03576248
H        0.29123602       1.18908624      -2.97005661       0.00593143       0.01942771       0.00944344       0.07023269
H       -2.68597464       2.39034876      -5.76103666       0.01091522       0.00023227       0.00249888       0.06222983
H       -4.43724521       1.42690930      -4.27254380       0.02727501      -0.02756183       0.01897322       0.05911095
H       -6.38450059      -0.36873235      -1.20456116      -0.01353630      -0.00410451       0.00019955       0.04418579
H       -6.80945747      -1.13127396       1.15319361      -0.01911056      -0.01157130       0.00519392       0.03585044
H       -4.87137155      -1.25182045       2.72498556      -0.02876480       0.00028416       0.00046354       0.04132467
H       -2.81542266      -0.92999971       4.25264401      -0.01874931       0.00226631       0.00379437       0.02299980
