77
Properties=species:S:1:pos:R:3:forces:R:3:charge:R:1 energy=-4209.972686921957 free_energy=-4209.972686921957 dipole="0.10905581304074544 -1.2267604051377865 1.7772895429126907" pbc="F F F"
C       -0.60477047      -3.64157827       1.96441393      -0.00541029       0.00868931       0.00681898      -0.05720962
N       -1.31601228      -3.05849861       0.86324482      -0.00005936      -0.00221292       0.00736724       0.00403429
C       -1.12407329      -1.82335999       0.36106909      -0.00781757       0.00961339       0.03123147       0.00831031
Ir       0.01327148      -0.07867837       0.71697615       0.03776359      -0.00854827      -0.00233622      -0.03948230
C        0.40518076       1.95909523       0.55006273       0.01995502      -0.02536103       0.00141433       0.02827386
N        1.25034411       2.87135987       1.04957934       0.01445019      -0.02306824      -0.00318629       0.02030265
C        2.32224187       2.60821430       1.96605591       0.01142897      -0.02748134       0.01223886      -0.06545235
C        0.99249471       4.11126435       0.50835517       0.01027602      -0.00847431      -0.00013198       0.03591652
C        1.55310870       5.35154623       0.76596750       0.01487832      -0.00302325      -0.01190494      -0.04263094
C        1.02641763       6.43246977       0.08712978       0.01670301       0.01520289      -0.00105162      -0.03198182
C       -0.02345013       6.27796215      -0.81574677       0.01327906       0.00833709       0.00764283      -0.03134457
C       -0.58344311       5.04250143      -1.07990817       0.00478400       0.02081747       0.00624764      -0.03869808
C       -0.06129981       3.94486332      -0.40950384      -0.00309803       0.01270020       0.00993289       0.04226483
N       -0.38201869       2.60671870      -0.36445526       0.00562023      -0.00256940       0.01736864       0.02133484
C       -1.27711845       1.83200418      -1.10777298       0.01412409       0.01995834      -0.01918055       0.07492291
C       -1.97758191       2.19771579      -2.24664958       0.01045507      -0.01087967      -0.01816930      -0.04163697
C       -2.73410976       1.22068378      -2.88664988       0.00658135      -0.00436361      -0.00841138      -0.02885992
C       -3.48582935       1.56592870      -4.13829915      -0.01079042       0.00862211       0.01294369       0.48653744
F       -4.81487028       1.69506259      -3.90756323      -0.00857802       0.00237728       0.02051494      -0.21901679
F       -3.09938806       2.71938082      -4.69425642      -0.01120079      -0.00552236      -0.01373333      -0.20276926
F       -3.38267593       0.62032284      -5.08671237       0.01252395       0.01571718       0.01252276      -0.20702867
C       -2.83207392      -0.08930449      -2.42214265       0.00998009       0.00788385      -0.00469236      -0.04588778
C       -2.13324813      -0.42063416      -1.27254121      -0.01941889      -0.00494885      -0.00247785       0.06421531
C       -1.35580844       0.53168477      -0.63054867      -0.00688252       0.01474827      -0.04137783      -0.06502556
N       -2.05485269      -1.67058789      -0.63894021       0.01405500      -0.00251999      -0.00039150       0.00314095
C       -2.83743632      -2.79666581      -0.75308862      -0.00481646      -0.00472061       0.00216185       0.04031956
C       -3.93851688      -3.13232030      -1.53000298       0.00307078      -0.01527294       0.00066844      -0.04194279
C       -4.49783275      -4.38125338      -1.34003623       0.00593814      -0.01450537      -0.00034323      -0.03240854
C       -3.99311339      -5.27818067      -0.40012301       0.00018738       0.00110294       0.00097494      -0.03293611
C       -2.91450130      -4.94818353       0.39716229      -0.00119697      -0.01295469      -0.00951049      -0.04517609
C       -2.34759181      -3.69665252       0.21109766      -0.00840129      -0.00471522       0.00433711       0.03485980
C        0.53063273      -0.05930437       2.80856402       0.00537258       0.00036640       0.00432235      -0.07872560
C       -0.11358768       0.96057127       3.52958739      -0.01867693      -0.02008849       0.00782096      -0.05437364
C       -0.05675617       1.04732541       4.90534134      -0.00035430       0.01429716       0.00080717       0.15674353
F       -0.67753387       2.08519334       5.51720654      -0.03219990      -0.01176001       0.01177809      -0.23630100
C        0.62351371       0.11933847       5.67216357       0.00760999       0.01116293      -0.01711409      -0.05610331
C        1.27131799      -0.89159087       4.99894916      -0.00672602       0.00322682      -0.00871909      -0.05336041
C        1.25112151      -0.96315429       3.60244126      -0.00271075      -0.00526787      -0.00376781       0.12413341
O        1.99725345      -2.05023405       3.16664626      -0.00343929      -0.00518940      -0.00605004      -0.24275733
C        2.44851929      -2.28931473       1.93048283      -0.01467766      -0.01366656      -0.00634066       0.22483491
C        3.28557485      -3.41301437       1.83100219       0.00806034       0.00182297      -0.00345354      -0.07289490
C        3.81900734      -3.73120924       0.60124806       0.00122228       0.01664532      -0.00678543      -0.01479639
C        3.52717562      -2.92293651      -0.48555824      -0.01655542      -0.00169101      -0.01348044      -0.05801324
C        2.68671874      -1.82870690      -0.30516428       0.01013769       0.01217638       0.02739263       0.08924832
N        2.13683086      -1.53448794       0.89011553      -0.03108501      -0.00520321       0.01160219      -0.17077247
C        2.36137845      -0.91342613      -1.36627917      -0.00227412       0.00607936       0.02236029       0.03295019
C        2.91252296      -0.67944985      -2.62940181      -0.00927544       0.00564464       0.02346780      -0.07523375
C        2.18308621       0.41397525      -3.09250139      -0.01259719      -0.01825923      -0.01053634       0.01745315
C        2.33553162       1.13739465      -4.37645631      -0.00749696       0.01007455      -0.00357088       0.48322924
F        2.64538685       2.44102991      -4.21423367      -0.01808207       0.00465285       0.00094634      -0.21562194
F        3.31869580       0.61876133      -5.13675040      -0.01158384      -0.00902610       0.01200477      -0.21636999
F        1.22573051       1.11746713      -5.13942022      -0.00748748       0.00909242       0.00685410      -0.21250590
N        1.26574248       0.78861915      -2.18686546       0.02035702       0.00244414      -0.00230402      -0.21653281
N        1.38483246      -0.00608167      -1.16060304      -0.02458898      -0.02684970      -0.01698107      -0.05172289
H        0.16189777      -4.33558339       1.61137858       0.00705370       0.02223099      -0.00031194       0.06108167
H       -1.30206693      -4.18165296       2.60472274      -0.01350378      -0.00666256       0.00370391       0.06538057
H       -0.14332871      -2.84667248       2.54122922       0.02994308      -0.01450501       0.00789942       0.08952542
H        3.25318132       3.01878852       1.57194998      -0.01894104       0.00044145       0.00362617       0.07177347
H        2.11822044       3.05337030       2.94216987      -0.00769521       0.00570017      -0.01144285       0.06870377
H        2.41715388       1.52970216       2.07468361       0.02413563      -0.01838545       0.02408153       0.09337186
H        2.35895998       5.46620599       1.47344451      -0.00698142       0.01655977      -0.00416985       0.04465806
H        1.43005317       7.41631285       0.26711901      -0.00147836       0.02143636      -0.01759061       0.04568171
H       -0.41560952       7.14899037      -1.31773114       0.00894175      -0.00358254      -0.00308775       0.04808015
H       -1.40554515       4.96054269      -1.76950038      -0.00360890      -0.01023708      -0.00012199       0.05026329
H       -1.90145128       3.18060569      -2.67920925      -0.01920009      -0.02284026      -0.00955134       0.06458900
H       -3.39641586      -0.81016791      -2.99077181       0.00688685       0.02862889       0.00571790       0.05415270
H       -4.36777593      -2.45046783      -2.24337674       0.01311175      -0.01146233      -0.01313201       0.04914848
H       -5.35177593      -4.66734717      -1.93482865       0.00527673      -0.00269946       0.01771003       0.04716902
H       -4.46287003      -6.24313001      -0.28536626       0.00968195       0.01309268      -0.00654443       0.04463589
H       -2.53278356      -5.63391184       1.13701814      -0.00434329      -0.01158260      -0.01693759       0.04125542
H       -0.68856851       1.72130830       3.01595336       0.01639428      -0.01172862      -0.00010960       0.06256031
H        0.65355957       0.19802622       6.74696033      -0.02001494       0.00709184      -0.02069101       0.05838006
H        1.81719221      -1.65038202       5.53905850       0.02541856       0.01887120      -0.02598752       0.05590390
H        3.49731665      -3.98422456       2.71949070      -0.01304475       0.00106432      -0.00277170       0.05553166
H        4.46375894      -4.59054422       0.48942100      -0.00890441       0.01286803       0.00725826       0.04830348
H        3.93168114      -3.13109620      -1.46162635       0.01034919       0.01608487      -0.00570176       0.05224247
H        3.71107850      -1.18831832      -3.12887626      -0.01080948       0.00430268       0.02041368       0.03015530
