74
Properties=species:S:1:pos:R:3:forces:R:3:charge:R:1 energy=-3600.668839946865 free_energy=-3600.668839946865 dipole="-0.35019430679946767 -0.7610241716328935 -0.6869347856732925" pbc="F F F"
C       -3.03549695       0.38438064      -3.22334403       0.01251378      -0.00586285      -0.01281997      -0.05560909
N       -1.59985479       0.44056424      -3.17873747       0.01165275       0.00189838      -0.00943155       0.02690261
C       -0.78982073       0.81661484      -4.21068034       0.00018780       0.02589841       0.00394780      -0.01959950
C        0.49540151       0.76668371      -3.76344834      -0.02600493      -0.00397033      -0.00328985      -0.01600771
N        0.43864052       0.35467270      -2.46369144      -0.01555947       0.00632324      -0.00605070       0.02957535
C       -0.86103992       0.15249542      -2.08922262       0.00008691       0.00450166      -0.00663102      -0.00940047
Ir      -1.02892840      -0.47587509      -0.08953843      -0.00149792      -0.03814676      -0.00733103       0.02314669
C       -0.31537539      -1.22131064       1.72292606      -0.00728957       0.00272214       0.02331236       0.00893413
N       -0.75326787      -1.70320148       2.89530332      -0.00765328       0.00167433       0.02137188       0.03454043
C       -2.12833910      -1.97719596       3.20619070      -0.00044573      -0.00759271       0.00867431      -0.06291105
C        0.30226642      -1.91228961       3.73985948      -0.00624599       0.01279513       0.01587611      -0.02185782
C        1.43031053      -1.54548579       3.07795059       0.00161812      -0.01225664       0.01076932      -0.01493544
N        1.04004520      -1.13355174       1.83692965      -0.00184376      -0.00382682       0.00306316       0.04308820
C        1.76023327      -0.65030409       0.73720176      -0.00909653       0.02157735      -0.00901110       0.05217788
C        3.08980721      -0.23334246       0.70008201       0.01181840       0.00752585      -0.00824288      -0.05471145
C        3.58521053       0.39658378      -0.44379303       0.00075291       0.02410390      -0.00997503       0.01442574
C        4.99238640       0.97974855      -0.41987194       0.01393732      -0.01173505       0.00809175       0.02690036
C        5.31714677       1.78759708      -1.68151380       0.01073960      -0.00724666       0.03066869      -0.10867443
C        6.02283247      -0.15027718      -0.30574407       0.00041593      -0.03075798      -0.00226631      -0.10703902
C        5.12506345       1.91818546       0.79078205      -0.01684673      -0.00242140      -0.00623729      -0.10987259
C        2.76215932       0.55651030      -1.55717080      -0.00765237       0.01536740      -0.01242343      -0.06030269
C        1.43929036       0.12417749      -1.50737053      -0.01213048       0.01165476      -0.01442632       0.04452731
C        0.94022853      -0.48971668      -0.36919733      -0.01722173       0.01282898      -0.01053935      -0.06177281
C       -1.69418056      -2.38472453      -0.53048723       0.01812575       0.01962257       0.02954607      -0.05565616
C       -0.79627402      -3.45412001      -0.60320145      -0.00832458      -0.00253467      -0.00036017      -0.05698964
C       -1.22180631      -4.74205957      -0.86430471       0.00229118       0.00500160      -0.02488749       0.15741711
F       -0.30383291      -5.73751308      -0.90778145      -0.00658482       0.00713009      -0.01795953      -0.23265935
C       -2.55476368      -5.03939769      -1.07932279       0.00522449      -0.01132315       0.00304057      -0.05442810
C       -3.45853309      -4.00273435      -1.01205600       0.00758810      -0.00574986      -0.00349710      -0.05595228
C       -3.05107196      -2.69578552      -0.71860109       0.02482796      -0.01555174      -0.00551179       0.13490515
O       -4.12440220      -1.83660005      -0.69729073       0.00409641      -0.04100011       0.01781712      -0.25374954
C       -4.18695655      -0.59132440      -0.15643289       0.02094545       0.03099102      -0.01388604       0.20996812
C       -5.45678287      -0.05460819      -0.08587823      -0.01166469       0.02678466      -0.00274768      -0.09442020
C       -5.61556986       1.25063943       0.42818694      -0.00654521       0.01058515      -0.00823282      -0.04446612
C       -4.49913650       1.94229439       0.83203567       0.00976837      -0.00394982      -0.00728288      -0.05342403
C       -3.23599097       1.35531281       0.73231226      -0.00982737       0.01804469       0.00148001       0.03540715
N       -3.08888391       0.05013020       0.24285525       0.01421956       0.01629657       0.02492350      -0.19165535
C       -2.00953870       1.98717968       1.08069171      -0.00661116      -0.00682460      -0.01036409       0.03008129
C       -1.64038187       3.21911895       1.63821001      -0.01816929      -0.01053911      -0.00204804      -0.08412156
C       -0.24538316       3.13637573       1.73585586      -0.00702628       0.00011359      -0.00099951       0.02331065
C        0.71572870       4.12377661       2.27880250      -0.00371352       0.00314642       0.00544503       0.48341836
F        0.14371569       5.30778478       2.56031541      -0.01810194      -0.00169451      -0.00787964      -0.21631905
F        1.29641529       3.71295961       3.42828903       0.00588002       0.01117557       0.00713260      -0.21842695
F        1.73570798       4.39155319       1.43817772      -0.01384955      -0.00112570       0.00605357      -0.21498306
N        0.20150026       1.96500418       1.28135837      -0.00525996       0.00651544      -0.02318458      -0.22508358
N       -0.85105845       1.29838365       0.85699057      -0.00909328      -0.01498672      -0.01185421      -0.03846762
H       -3.38242784      -0.59744881      -2.90077031       0.00694362      -0.00322020      -0.00206415       0.08002769
H       -3.46426851       1.13507255      -2.55594002      -0.00873822      -0.00488842      -0.01960901       0.07431001
H       -3.37855753       0.56713674      -4.23969428       0.00763214       0.01779819      -0.00261675       0.06527260
H       -1.18035628       1.08923828      -5.16970081       0.02240083       0.00850710      -0.00868051       0.05195836
H        1.41225048       0.98177230      -4.27332352      -0.02913483      -0.00164455       0.02480117       0.05704859
H       -2.76499467      -1.34578909       2.58675359       0.01080352      -0.00691420       0.01397390       0.08898194
H       -2.36901758      -3.02344980       3.00068332       0.01875611       0.00965354      -0.00233237       0.06913964
H       -2.31688075      -1.76957641       4.25902402      -0.02202459       0.01496330      -0.01444581       0.07163851
H        0.17238553      -2.29408434       4.73162200       0.00988311       0.00582013       0.00220680       0.05818326
H        2.44875486      -1.54860792       3.40485006       0.01658379      -0.00594747      -0.02145146       0.06310353
H        3.70485204      -0.33469195       1.57882570       0.02488506       0.00557218      -0.00199980       0.03907327
H        6.31738543       2.20597422      -1.58952964       0.00064981       0.00176525      -0.00886436       0.03866421
H        4.61766056       2.61114086      -1.80656155       0.02625348      -0.00659358       0.00744226       0.04021761
H        5.30373371       1.15760076      -2.56934457      -0.01640725       0.02493932       0.01804720       0.03274285
H        7.01689381       0.26826781      -0.16439297       0.00677009      -0.01422808      -0.00818544       0.04036463
H        6.02642506      -0.74972245      -1.21298987      -0.00477428      -0.03921526      -0.00569632       0.03409087
H        5.80217402      -0.80388454       0.53308679      -0.00402979      -0.00577872       0.02676443       0.03545038
H        4.28114443       2.60167257       0.83627533      -0.01109429       0.01457711      -0.01081362       0.04806857
H        6.03974616       2.50201022       0.70974357      -0.00850287      -0.01078942       0.00905797       0.03917928
H        5.16635340       1.36324790       1.72378234      -0.02682899      -0.00823735      -0.00847034       0.03747155
H        3.11080190       1.07367842      -2.43315460       0.00789955      -0.01195351      -0.03079790       0.04205817
H        0.26380742      -3.28856071      -0.47168156      -0.01696054      -0.00811351       0.02778983       0.06840988
H       -2.86864987      -6.05110680      -1.28037427       0.01093068       0.01025627      -0.01001440       0.06118801
H       -4.51113743      -4.17433166      -1.17655825       0.00267345      -0.01182475       0.02392436       0.05991362
H       -6.29352247      -0.63589488      -0.43096606      -0.00856720      -0.00016466       0.00715818       0.03583154
H       -6.59975828       1.68844923       0.48260182       0.02933211      -0.01031626       0.02193077       0.02681416
H       -4.57567939       2.94853593       1.21579488       0.02950204      -0.03715319      -0.00898230       0.03230190
H       -2.26653791       4.03604224       1.92931266       0.00273278       0.00794904       0.02008525       0.02326547
