65
Properties=species:S:1:pos:R:3:forces:R:3:charge:R:1 energy=-3687.4559154058556 free_energy=-3687.4559154058556 dipole="1.784208569989559 -1.3294440509133667 -0.4185845250212696" pbc="F F F"
C        2.31462304      -1.48331500       2.95255658      -0.00359391       0.01355781      -0.00988271      -0.05732785
N        0.87881062      -1.42359072       2.98080961       0.01946072      -0.00748203      -0.00274675       0.03107273
C        0.10617947      -1.71785407       4.06760313       0.01970264       0.00387697       0.00429960      -0.01849773
C       -1.18798130      -1.46848712       3.73222597      -0.00183831       0.00426101      -0.02893179      -0.01593439
N       -1.17547517      -1.02879249       2.43946650       0.01005506       0.00127958      -0.01720159       0.03650330
C        0.10644050      -0.99726178       1.96153035       0.02593124      -0.02000872      -0.00328840      -0.01015112
Ir       0.22306093      -0.36903779      -0.05316246      -0.02941469       0.00769202       0.00119996       0.02512447
C       -0.53678496       0.38962880      -1.85736633      -0.03765577      -0.01808280       0.00824988       0.00297040
N       -0.14560657       0.86099486      -3.05376353      -0.02676945      -0.00219240       0.00210315       0.03484883
C        1.18478199       0.79875438      -3.59357299      -0.01915904       0.01808658       0.00705811      -0.06192809
C       -1.21715833       1.38821011      -3.72271475      -0.02165744       0.01041989      -0.00224183      -0.01983385
C       -2.30674624       1.25262862      -2.92509869      -0.00774004      -0.02470340       0.01664473      -0.01552350
N       -1.87863697       0.63289238      -1.78503594      -0.01848881       0.00629852       0.01044019       0.04393910
C       -2.56175456       0.29480948      -0.61666624       0.00987574      -0.00839576      -0.01705127       0.05398559
C       -3.89698004       0.58179767      -0.30147727       0.02472357      -0.00150221      -0.03179403      -0.05326588
C       -4.34183897       0.25461489       0.97312266       0.02318591      -0.00202855      -0.02519457      -0.02619133
C       -5.73944996       0.60340706       1.39053759       0.00126967      -0.00704548      -0.01250923       0.48592427
F       -5.76030372       1.44498750       2.44104055      -0.01282496      -0.01043597       0.00144904      -0.20878658
F       -6.44347658      -0.47914950       1.78285453      -0.01595121      -0.01193540      -0.01396912      -0.21433402
F       -6.45877991       1.18918866       0.42453896      -0.02843900      -0.02618265       0.00102333      -0.20586359
C       -3.52816389      -0.33397593       1.93823120       0.00510879       0.01238352       0.00994542      -0.05247146
C       -2.19840075      -0.59353716       1.59708495      -0.00755143      -0.01356583      -0.02688529       0.04927996
C       -1.73758964      -0.31932110       0.31410238       0.01063042       0.01631902      -0.00747011      -0.05192380
C        0.52378266      -2.16603266      -1.01184830      -0.00153210       0.00433159       0.01455638      -0.05417149
C       -0.54914542      -2.88273803      -1.55592728       0.00206391       0.01101746       0.01774934      -0.05421998
C       -0.38160342      -4.14816149      -2.07950654      -0.01234837       0.01053258      -0.00089966       0.16171411
F       -1.45275562      -4.79652772      -2.58725852      -0.01986553       0.00832465       0.02701898      -0.22464712
C        0.85479226      -4.77184979      -2.10556637      -0.01054969       0.00110000       0.00979416      -0.04951104
C        1.93368419      -4.07354968      -1.61670472      -0.01156717       0.01993634      -0.02006245      -0.05298699
C        1.78932450      -2.77538020      -1.10928432       0.00122468       0.02788966       0.01144477       0.13987890
O        3.00068633      -2.25095140      -0.73638320       0.00175135       0.03428473       0.01158122      -0.24431759
C        3.29030355      -0.95032370      -0.46782839       0.02096607       0.00032157      -0.03755737       0.20845758
C        4.63520617      -0.63468616      -0.46427816       0.02021557      -0.00831517      -0.00116438      -0.08729742
C        5.02392680       0.68681834      -0.17493517      -0.00020279       0.01751753       0.02911591      -0.04058544
C        4.04672038       1.61196403       0.11647781       0.01561873       0.01698191       0.00824419      -0.05210275
C        2.70570549       1.23986206       0.10456825       0.01407032      -0.01074715       0.00186986       0.04437857
N        2.32453543      -0.06239543      -0.21416723       0.01255760      -0.01722833      -0.02412206      -0.17750465
C        1.62220204       2.12010105       0.39178808       0.01772578       0.00900273       0.00532418       0.02918652
C        1.51264961       3.49279229       0.64279952      -0.02267378       0.00849782       0.00288443      -0.08238305
C        0.13664141       3.69329623       0.77988375      -0.00935029       0.00618618       0.02171197       0.02223116
C       -0.57664860       4.96854255       1.03398338       0.00222120      -0.00034294      -0.00985495       0.48369808
F       -1.29995322       4.96306293       2.16865455      -0.00743150      -0.00777184      -0.01448166      -0.21024595
F        0.27091806       6.00961804       1.13957547       0.01954490      -0.02209008       0.00140322      -0.21585287
F       -1.43494530       5.29456374       0.04586120      -0.02552985      -0.00783445       0.00700377      -0.21436101
N       -0.53217155       2.54493958       0.63395866      -0.00826754       0.00823905       0.00614740      -0.21260800
N        0.36036538       1.60741205       0.42750456       0.01277753       0.03083998      -0.00826718      -0.03453520
H        2.65723574      -1.84526352       1.98465460      -0.03442021      -0.03262263       0.00181879       0.08094523
H        2.73677068      -0.48721112       3.10781277       0.01281024      -0.01351723       0.02777668       0.07191835
H        2.67246167      -2.15179128       3.73371404      -0.00918555       0.01281012       0.00312657       0.06869829
H        0.51811542      -2.08169682       4.98597343       0.03009598       0.01264708       0.00790852       0.05774410
H       -2.08222371      -1.57639677       4.30956168      -0.00019455       0.00694457      -0.01921395       0.06404445
H        1.89955236       0.64477314      -2.78742913      -0.02215380      -0.01214059       0.02641375       0.08459630
H        1.27244243      -0.02399138      -4.30720552      -0.01381792      -0.01712590       0.02059106       0.06918712
H        1.41633433       1.73172584      -4.10738226       0.01785547       0.00813681       0.02143729       0.07337500
H       -1.13060175       1.81168382      -4.70131104       0.02891943       0.01796788      -0.01657345       0.06219311
H       -3.32201511       1.55390368      -3.07942087       0.02697165      -0.01128398      -0.01308795       0.06933383
H       -4.55292935       1.06798370      -1.00369890      -0.00779373       0.02005581       0.01728307       0.05878956
H       -3.91932650      -0.54203605       2.92015125      -0.00153084       0.02374765       0.03037568       0.05142713
H       -1.54522759      -2.46512411      -1.55150978      -0.00076523       0.00352690       0.00045686       0.07153015
H        0.95441574      -5.76364013      -2.51479550       0.02415731      -0.00623735      -0.00729056       0.06772982
H        2.92623195      -4.49518449      -1.63773573       0.00118187      -0.01384928       0.00246119       0.06479751
H        5.35588921      -1.40230592      -0.68442554       0.00410230      -0.01025511      -0.00513633       0.04378896
H        6.06742757       0.95751180      -0.18146471      -0.02606262      -0.02032817       0.01038596       0.03553624
H        4.29349775       2.63215288       0.36542825       0.01441010      -0.02317640      -0.02507637       0.04110563
H        2.27895899       4.23693836       0.70086914       0.02514131      -0.02658774      -0.00634364       0.02942939
