26
Properties=species:S:1:pos:R:3:forces:R:3:charge:R:1 energy=-1096.640668031152 free_energy=-1096.640668031152 dipole="-0.2062820890492915 -0.13430835618890333 -0.021727634035985748" pbc="F F F"
N       -2.06767158       2.51487538      -0.33783752      -0.00894838      -0.02624359       0.00080300      -0.22525348
C       -2.21618792       1.11964402      -0.32936508      -0.00478450      -0.02439313      -0.00201847       0.06819406
C       -3.46591483       0.56920136      -0.52464791       0.00836368      -0.03298369       0.01627555      -0.04126231
C       -3.64401013      -0.80798580      -0.56832978      -0.01129527      -0.01899599      -0.00181772      -0.04571258
C       -2.54163733      -1.64890250      -0.46854582       0.01471277       0.01063081       0.00489391      -0.03077891
C       -1.28448837      -1.13021954      -0.26876183       0.01644264       0.01193053       0.00849978      -0.04730741
C       -1.08579944       0.25634061      -0.13966366       0.00437667       0.01114667       0.00088574      -0.02114858
C        0.15691788       0.92292213       0.07554628       0.01776203      -0.00058487       0.01212545       0.16255032
O        0.22431723       2.19490618       0.00532570      -0.01009281       0.00355892      -0.02527485      -0.40590319
C        1.40201345       0.19669872       0.35047392       0.02561108       0.00629924       0.00527933       0.00683195
C        1.47990495      -0.96418927       1.12552726      -0.01707723      -0.00216028       0.00202057      -0.03930676
C        2.70636614      -1.55262439       1.37060581      -0.00868163       0.02692885       0.00913722      -0.02843174
C        3.87348015      -0.99384582       0.87110715      -0.00292946      -0.00865696      -0.00509511      -0.03559588
C        3.80626835       0.17850699       0.13250367       0.01124998      -0.00068925       0.01932579      -0.02905945
C        2.59042264       0.77497815      -0.11626288       0.02776121       0.01317989      -0.01345162      -0.02749624
H       -1.48544052       2.87484440      -1.08313775      -0.01489141       0.03033025       0.00812061       0.20342453
H       -1.83104701       2.93872127       0.54965376       0.00015963      -0.00281340       0.00792611       0.19688302
H       -4.30680613       1.23603898      -0.64806530       0.03849998      -0.01690111       0.01005459       0.04653121
H       -4.63134345      -1.21970515      -0.70161356      -0.01880854       0.00885984      -0.02230733       0.03677602
H       -2.66349640      -2.71846041      -0.55752166      -0.03048695       0.01622611       0.00140721       0.03345801
H       -0.43439997      -1.79250812      -0.24336170       0.01752662      -0.00246068      -0.00836748       0.04527105
H        0.59373612      -1.37915402       1.57917953      -0.02517293      -0.00383384       0.01844988       0.03682837
H        2.75311957      -2.44523016       1.97944932      -0.01206688       0.01891750      -0.02577407       0.03104275
H        4.82924925      -1.45450437       1.07228867      -0.02013722      -0.01730285       0.00191961       0.03057778
H        4.70908356       0.63845684      -0.24326883      -0.00024526      -0.02404860      -0.00178033       0.03340533
H        2.53336381       1.69119451      -0.68230369       0.00315218       0.02405962      -0.02123739       0.04548213
