24
Properties=species:S:1:pos:R:3:forces:R:3:charge:R:1 energy=-1002.9653367761554 free_energy=-1002.9653367761554 dipole="-0.11476095788356507 0.2966617684395235 0.5318795087919127" pbc="F F F"
O        0.14729057      -1.28248702      -2.30877297      -0.00404786      -0.02434548      -0.00699229      -0.33222739
C        0.09941854      -0.64407455      -1.22979695      -0.03615477      -0.00675730      -0.01534232       0.17735470
C        1.27423263      -0.17346167      -0.53591010      -0.00468652      -0.00410233      -0.01822561       0.00500932
C        1.29774195       0.19445549       0.81749124       0.00952939       0.01801401      -0.01047105      -0.04136226
C        2.47522292       0.60700259       1.40164418       0.04362103       0.00083482       0.00224169      -0.02503030
C        3.65723348       0.63197916       0.67037891      -0.00174099       0.02310204       0.00015507      -0.04014348
C        3.65084262       0.21286881      -0.65284479       0.00103880      -0.00315246       0.00321874      -0.02593021
C        2.48862131      -0.19574288      -1.25984898      -0.01855920      -0.00132902       0.00068193      -0.02755103
C       -1.21921723      -0.36050337      -0.63321392      -0.00921438      -0.00430036       0.02503931       0.01723443
C       -1.49174610       0.83424163       0.04040425      -0.00808028      -0.01145362       0.00391981      -0.03546667
C       -2.74126232       1.03783115       0.59345612       0.00495285      -0.02220885       0.01122144      -0.02492444
C       -3.73291421       0.07550132       0.46332184      -0.00729899       0.00136274      -0.01848727      -0.03688172
C       -3.47729610      -1.08195043      -0.25772026       0.00180249      -0.00170676       0.01604528      -0.02495357
C       -2.24028979      -1.30106926      -0.82564083      -0.01120684       0.00600892      -0.00389269      -0.02602771
H        0.40721624       0.11539545       1.42438220       0.00876158       0.01551513      -0.02799215       0.04436651
H        2.47928180       0.89279221       2.44279893      -0.00208190      -0.00313076       0.02163887       0.03437155
H        4.57294652       0.96738589       1.13123601       0.01256724      -0.00907610       0.03176572       0.03668194
H        4.56904317       0.20958184      -1.22442755      -0.02114547       0.01571361      -0.00080881       0.04490876
H        2.46699115      -0.51972077      -2.28847286       0.01005997      -0.00176334       0.00036169       0.05165359
H       -0.74591703       1.61301079       0.09969667      -0.00760583      -0.01329838       0.01200829       0.04825935
H       -2.94684191       1.96218643       1.11481255       0.02299132      -0.01796163      -0.01926335       0.04000998
H       -4.70649135       0.23858673       0.90091320       0.00921855       0.01168791      -0.00983339       0.04102185
H       -4.24698236      -1.83129098      -0.37596736       0.00230397       0.01220920      -0.00130946       0.04515291
H       -2.03712449      -2.20251856      -1.38222626       0.00497585       0.02013800       0.00432053       0.05447388
