24
Properties=species:S:1:pos:R:3:forces:R:3:charge:R:1 energy=-1223.5078838438064 free_energy=-1223.5078838438064 dipole="0.05899936452364838 0.2786727350729737 -0.33270096869664784" pbc="F F F"
O       -0.09977541      -1.65046799       2.02558898      -0.01303839      -0.00606226      -0.01508667      -0.34189982
C       -0.07506633      -0.87890314       1.02981870      -0.01890552      -0.00271511       0.00468659       0.17688246
C        1.22460976      -0.36141085       0.61778043      -0.02031501       0.00428686       0.00445940       0.01291346
C        2.36968749      -1.10923323       0.97497753      -0.02241671       0.02142950       0.01884246      -0.02497302
C        3.62320066      -0.66046806       0.64749039      -0.00808539      -0.02176941       0.01982701      -0.03509553
C        3.77618031       0.57450989       0.01664426       0.01722333      -0.01217164       0.02209766       0.09048414
Cl       5.35516867       1.16757330      -0.32726977       0.00341540       0.01439640      -0.02727887      -0.13376334
C        2.66101872       1.35854193      -0.28275177       0.00878714      -0.02062109      -0.00636321      -0.03458459
C        1.40127144       0.90586761       0.02877302      -0.00381724       0.01188717       0.01158437      -0.03678628
C       -1.28538034      -0.40657447       0.38921648       0.02589567       0.02098928      -0.00275586       0.00469416
C       -1.34004146      -0.01243569      -0.95975043       0.00596741      -0.00626056      -0.00854500      -0.03706340
C       -2.54185166       0.31992629      -1.54049070       0.01186023       0.01026542       0.01259402      -0.03488916
C       -3.71010816       0.30503345      -0.77793018       0.00068487      -0.02975295       0.00380731       0.09029338
Cl      -5.20543223       0.75894206      -1.50337696      -0.00289185       0.01276096      -0.00903576      -0.13829551
C       -3.67768061      -0.08986025       0.55888115       0.01971367      -0.01993215       0.01520567      -0.03481017
C       -2.48423911      -0.44440630       1.13503961       0.02294138      -0.02950902      -0.01026455      -0.02556743
H        2.23020965      -2.05278201       1.47871734       0.01297080       0.00940629      -0.01117233       0.07151589
H        4.49049848      -1.25488284       0.88881185       0.01624072       0.00665540      -0.01770090       0.06538785
H        2.79478047       2.33209602      -0.72834002      -0.00541546      -0.01588726      -0.02781829       0.06183999
H        0.55269764       1.54540036      -0.15257611      -0.03140672      -0.00324431      -0.00493819       0.05619771
H       -0.44576252      -0.03277631      -1.56419498       0.00397551       0.01944445       0.01068915       0.05485639
H       -2.59124787       0.58506645      -2.58543034       0.02242265       0.01756827       0.01495339       0.06020190
H       -4.58889433      -0.12544252       1.13505819      -0.01715117       0.00695539      -0.01081738       0.06487258
H       -2.43384326      -0.77331370       2.16089582      -0.02865530       0.01188036       0.01302997       0.06758835
